 &FCI NORB=          18 , NELEC=          18 , MS2=           0 ,
 ORBSYM=1,1,1,1,1,1,1,1,1,1,1,1,1,1,1,1,1,1,
 ISYM=0,
 /
   2.86553801924526                1           1           1           1
 -2.397375061056334E-010           2           1           1           1
 -0.259570951950249                3           1           1           1
 -4.030677180910658E-011           4           1           1           1
 -6.425796378828875E-002           7           1           1           1
  1.135667948570784E-011          10           1           1           1
  1.514170212824073E-011          13           1           1           1
  0.211045734252577               14           1           1           1
 -0.129866184607651               17           1           1           1
  2.832856171863796E-011          18           1           1           1
   2.49071864216591                2           1           2           1
  1.255945347722331E-011           3           1           2           1
  0.278859064446103                4           1           2           1
  2.734285020622451E-012           7           1           2           1
 -8.129896836732495E-002          10           1           2           1
 -0.102512872422358               13           1           2           1
 -9.961392821722370E-012          14           1           2           1
  6.608220914916529E-012          17           1           2           1
 -0.196934167549660               18           1           2           1
  4.146925727563767E-002           3           1           3           1
  4.205096340581527E-012           4           1           3           1
  6.623547836627647E-003           7           1           3           1
 -1.504865676515976E-012          10           1           3           1
 -1.311126446128241E-012          13           1           3           1
 -3.144066486599248E-002          14           1           3           1
  2.484745078974237E-002          17           1           3           1
 -3.095766698546498E-012          18           1           3           1
  4.762378256563989E-002           4           1           4           1
  1.198518714828900E-012           7           1           4           1
 -1.084841842063429E-002          10           1           4           1
 -2.057125606960448E-002          13           1           4           1
 -3.565108278036355E-012          14           1           4           1
  1.956148784620915E-012          17           1           4           1
 -3.252139751292826E-002          18           1           4           1
  1.938463164342121E-002           5           1           5           1
  1.317474775108796E-012           8           1           5           1
  1.524724790868959E-012           9           1           5           1
 -2.282721858652392E-002          11           1           5           1
 -3.421474918721001E-003          12           1           5           1
 -2.076727678712587E-012          15           1           5           1
 -3.664482996559859E-013          16           1           5           1
  1.938463164342097E-002           6           1           6           1
 -1.524766857913251E-012           8           1           6           1
  1.317557066053687E-012           9           1           6           1
  3.421474918720991E-003          11           1           6           1
 -2.282721858652390E-002          12           1           6           1
  3.663074617937800E-013          15           1           6           1
 -2.076369702260286E-012          16           1           6           1
  1.977770077519296E-002           7           1           7           1
  1.613787879370387E-012          10           1           7           1
 -2.263379696339218E-012          13           1           7           1
 -1.847525160883074E-002          14           1           7           1
 -1.607058986355620E-002          17           1           7           1
 -4.963390809464840E-014          18           1           7           1
  2.261992055065792E-002           8           1           8           1
 -1.822004352947104E-012          11           1           8           1
  1.564143915300589E-012          12           1           8           1
 -1.836104694650206E-002          15           1           8           1
  1.495821964833345E-002          16           1           8           1
  2.261992055065780E-002           9           1           9           1
 -1.563776885760149E-012          11           1           9           1
 -1.822152509173974E-012          12           1           9           1
 -1.495821964833334E-002          15           1           9           1
 -1.836104694650209E-002          16           1           9           1
  2.573909997872011E-002          10           1          10           1
 -1.686722185200247E-002          13           1          10           1
 -1.937183052858060E-013          14           1          10           1
 -2.892698884246481E-012          17           1          10           1
  1.691075987532957E-002          18           1          10           1
  2.758613351336929E-002          11           1          11           1
  2.521640882213738E-012          15           1          11           1
  6.501277381026904E-014          16           1          11           1
  2.758613351336962E-002          12           1          12           1
 -6.499445079355404E-014          15           1          12           1
  2.521496685018863E-012          16           1          12           1
  2.894346602798577E-002          13           1          13           1
  2.478155701479690E-012          14           1          13           1
  1.426900047771240E-012          17           1          13           1
  5.228725232599908E-003          18           1          13           1
  3.360313336776324E-002          14           1          14           1
 -4.411496643583953E-003          17           1          14           1
  2.032238960447685E-012          18           1          14           1
  2.490037898159102E-002          15           1          15           1
  2.490037898159141E-002          16           1          16           1
  3.652132561171433E-002          17           1          17           1
 -2.344884703076033E-012          18           1          17           1
  2.627292987870864E-002          18           1          18           1
   2.86555962456899                2           2           1           1
  1.262719095951326E-011           3           2           1           1
  0.279773698355929                4           2           1           1
  2.375474816851408E-012           7           2           1           1
 -7.336530530686794E-002          10           2           1           1
 -0.109514292943625               13           2           1           1
 -9.775680265278197E-012          14           2           1           1
  6.967273979974209E-012          17           2           1           1
 -0.194631721742068               18           2           1           1
  2.397309525371816E-010           2           2           2           1
 -0.260987771868412                3           2           2           1
  1.341834976464895E-011           4           2           2           1
 -5.679487329751082E-002           7           2           2           1
 -3.910996526634847E-012          10           2           2           1
 -4.929555028065913E-012          13           2           2           1
  0.207184992042211               14           2           2           1
 -0.137341754891242               17           2           2           1
 -9.469869333145198E-012          18           2           2           1
 -4.368398061298676E-002           4           2           3           1
 -2.938838408739208E-015           7           2           3           1
  1.566917746138420E-002          10           2           3           1
  1.358377958616903E-002          13           2           3           1
  3.158064088015777E-015          17           2           3           1
  3.216089787417592E-002          18           2           3           1
 -1.242736491697766E-002           7           2           4           1
 -2.700964452095889E-015          10           2           4           1
  2.658030046065463E-015          13           2           4           1
  3.704241816228290E-002          14           2           4           1
 -2.034857896558212E-002          17           2           4           1
  1.228184220991579E-015          18           2           4           1
  7.448902605844410E-015           5           2           5           1
 -1.374230918847651E-002           8           2           5           1
 -1.590336153674835E-002           9           2           5           1
 -7.792377854087817E-015          11           2           5           1
  2.164974556371860E-002          15           2           5           1
  3.817645705558335E-003          16           2           5           1
  7.211408119961460E-015           6           2           6           1
  1.590336153674828E-002           8           2           6           1
 -1.374230918847632E-002           9           2           6           1
 -7.220271472721529E-015          12           2           6           1
 -3.817645705558324E-003          15           2           6           1
  2.164974556371863E-002          16           2           6           1
  1.371038699238269E-014           7           2           7           1
 -1.692617782247894E-002          10           2           7           1
  2.365282782190555E-002          13           2           7           1
 -7.129279805395683E-015          14           2           7           1
 -1.358808898732633E-014          17           2           7           1
  4.661389234647574E-004          18           2           7           1
 -7.943298796497800E-015           8           2           8           1
  1.886511208899998E-002          11           2           8           1
 -1.619501680449779E-002          12           2           8           1
  6.043776590303196E-015          15           2           8           1
 -4.281134908384887E-015          16           2           8           1
 -7.742070873284490E-015           9           2           9           1
  1.619501680449770E-002          11           2           9           1
  1.886511208899999E-002          12           2           9           1
  4.706304790325078E-015          15           2           9           1
  5.577190185374059E-015          16           2           9           1
 -1.688124466603380E-014          10           2          10           1
  1.442850830132847E-014          13           2          10           1
  1.928878722378236E-003          14           2          10           1
  2.989373164738465E-002          17           2          10           1
 -4.930084118726086E-015          18           2          10           1
  8.290243491693161E-015          11           2          11           1
 -2.627691448493553E-002          15           2          11           1
 -6.771530212439501E-004          16           2          11           1
  7.318429885814094E-015          12           2          12           1
  6.771530212439617E-004          15           2          12           1
 -2.627691448493589E-002          16           2          12           1
 -1.350384647852421E-014          13           2          13           1
 -2.567541198968047E-002          14           2          13           1
 -1.468414420188038E-002          17           2          13           1
  2.681882493860144E-015          18           2          13           1
  5.931019564364703E-015          14           2          14           1
  5.692061405548898E-015          17           2          14           1
 -2.109308718854219E-002          18           2          14           1
 -7.457576223224294E-015          15           2          15           1
 -6.305167569694084E-015          16           2          16           1
  1.355122611346182E-014          17           2          17           1
  2.440184195801224E-002          18           2          17           1
 -3.084338340286763E-015          18           2          18           1
  0.832826870102966                3           3           1           1
  4.215561233422704E-011           4           3           1           1
 -2.254177360023564E-002           7           3           1           1
 -1.426789242309212E-011          10           3           1           1
 -6.256078988187141E-012          13           3           1           1
 -0.197735355519910               14           3           1           1
  0.167897524109537               17           3           1           1
 -1.857425324658379E-011          18           3           1           1
  5.891120924417237E-015           3           3           2           1
 -0.437975086062244                4           3           2           1
 -2.029626466892864E-015           7           3           2           1
  0.148236314240272               10           3           2           1
  6.492834263617785E-002          13           3           2           1
 -1.015854067532018E-014          14           3           2           1
  3.420874694626264E-015          17           3           2           1
  0.192837671108073               18           3           2           1
 -8.922908766521305E-003           3           3           3           1
 -5.760295669274274E-013           4           3           3           1
 -4.872951679443387E-003           7           3           3           1
  7.323476677520424E-014          10           3           3           1
  2.384679910136245E-013          13           3           3           1
  8.838669945231852E-003          14           3           3           1
 -5.187967269823498E-003          17           3           3           1
  3.891552878554361E-013          18           3           3           1
 -1.194418076498081E-002           4           3           4           1
  4.354759012160231E-014           7           3           4           1
  7.009352852150058E-003          10           3           4           1
  2.299767258623027E-003          13           3           4           1
  4.003528194726491E-013          14           3           4           1
 -4.259069225770462E-013          17           3           4           1
  9.816165766645128E-003          18           3           4           1
  2.048435641597197E-002           5           3           5           1
  6.149707479363720E-013           8           3           5           1
  7.117119393829086E-013           9           3           5           1
 -1.115516685543784E-002          11           3           5           1
 -1.672000619145097E-003          12           3           5           1
 -4.966600047895398E-013          15           3           5           1
 -8.769406641823130E-014          16           3           5           1
  2.048435641597178E-002           6           3           6           1
 -7.117421886235209E-013           8           3           6           1
  6.150130318210989E-013           9           3           6           1
  1.672000619145093E-003          11           3           6           1
 -1.115516685543789E-002          12           3           6           1
  8.762955638896841E-014          15           3           6           1
 -4.964515533693523E-013          16           3           6           1
  1.919647068781588E-002           7           3           7           1
  8.940515428684792E-013          10           3           7           1
 -4.300188135263061E-013          13           3           7           1
 -1.700488846848052E-003          14           3           7           1
 -1.238955161749372E-002          17           3           7           1
  2.827616613076955E-013          18           3           7           1
  2.111616274792749E-002           8           3           8           1
 -4.449773882697627E-013          11           3           8           1
  3.819773002674415E-013          12           3           8           1
 -8.776216226826667E-003          15           3           8           1
  7.149732277502384E-003          16           3           8           1
  2.111616274792739E-002           9           3           9           1
 -3.818273822120410E-013          11           3           9           1
 -4.450162840227007E-013          12           3           9           1
 -7.149732277502285E-003          15           3           9           1
 -8.776216226826724E-003          16           3           9           1
  1.836751506645056E-002          10           3          10           1
 -1.177532715409331E-002          13           3          10           1
 -3.066744991633841E-013          14           3          10           1
 -4.849855868467590E-013          17           3          10           1
  1.862901502919617E-003          18           3          10           1
  1.257383124196973E-002          11           3          11           1
  5.617346865438577E-013          15           3          11           1
  1.449220517896199E-014          16           3          11           1
  1.257383124196994E-002          12           3          12           1
 -1.448269130489843E-014          15           3          12           1
  5.616406320053946E-013          16           3          12           1
  8.817957081386631E-003          13           3          13           1
  2.971537946261371E-014          14           3          13           1
  6.730594814124968E-013          17           3          13           1
 -7.474162618159349E-003          18           3          13           1
 -4.153810794103577E-003          14           3          14           1
  1.136217539915488E-002          17           3          14           1
 -4.215976526222853E-013          18           3          14           1
  1.104146260066573E-002          15           3          15           1
  1.104146260066596E-002          16           3          16           1
  8.677842972049996E-003          17           3          17           1
 -9.658940314238862E-015          18           3          17           1
 -4.610376593303176E-003          18           3          18           1
  0.837435954669979                4           4           1           1
  1.825019302348352E-011           7           4           1           1
 -8.208437451367345E-002          10           4           1           1
 -0.158702485076131               13           4           1           1
 -2.330852177934162E-011          14           4           1           1
  1.130219529077436E-011          17           4           1           1
 -0.200932781446675               18           4           1           1
 -4.662936703425657E-015           4           4           2           1
 -0.189608636463095                7           4           2           1
  2.609024107869118E-015          10           4           2           1
  6.085409953726639E-015          13           4           2           1
  0.242253832742706               14           4           2           1
 -0.117441660734172               17           4           2           1
  1.332267629550188E-014          18           4           2           1
 -1.300963654185686E-002           4           4           3           1
 -3.384120105453733E-013           7           4           3           1
 -1.055574227676541E-003          10           4           3           1
  7.813792672925011E-003          13           4           3           1
  5.466022328769887E-013          14           4           3           1
 -1.635236000427365E-013          17           4           3           1
  8.357349286620392E-003          18           4           3           1
 -6.357248711827412E-013           4           4           4           1
 -1.471799720190565E-003           7           4           4           1
  2.520844860978699E-013          10           4           4           1
  2.333804875157171E-013          13           4           4           1
  9.922808003241527E-003          14           4           4           1
 -6.698446796305539E-003          17           4           4           1
  4.534632218333723E-013          18           4           4           1
  9.589551375199790E-013           5           4           5           1
  1.465959256647191E-002           8           4           5           1
  1.696489268059305E-002           9           4           5           1
 -6.252411782758927E-013          11           4           5           1
 -9.387128119091315E-014          12           4           5           1
 -1.081711687012798E-002          15           4           5           1
 -1.907455200534641E-003          16           4           5           1
  9.591826844509294E-013           6           4           6           1
 -1.696489268059300E-002           8           4           6           1
  1.465959256647177E-002           9           4           6           1
  9.381146033604626E-014          11           4           6           1
 -6.254985204377957E-013          12           4           6           1
  1.907455200534632E-003          15           4           6           1
 -1.081711687012806E-002          16           4           6           1
  8.973850850781118E-013           7           4           7           1
  2.101401353627476E-002          10           4           7           1
 -9.980372962459490E-003          13           4           7           1
 -2.323388877123467E-013          14           4           7           1
 -5.397979155677413E-013          17           4           7           1
  3.539962414076005E-003          18           4           7           1
  1.163988176677844E-012           8           4           8           1
 -1.077838769128142E-002          11           4           8           1
  9.252856222756132E-003          12           4           8           1
 -4.431420508321793E-013          15           4           8           1
  3.606433185941726E-013          16           4           8           1
  1.163772203605085E-012           9           4           9           1
 -9.252856222756041E-003          11           4           9           1
 -1.077838769128146E-002          12           4           9           1
 -3.608988108361189E-013          15           4           9           1
 -4.428676934724318E-013          16           4           9           1
  1.064065285535931E-012          10           4          10           1
 -6.909583040275169E-013          13           4          10           1
 -1.084562348162511E-002          14           4          10           1
 -9.829237230636750E-003          17           4          10           1
 -3.688629263143284E-014          18           4          10           1
  7.030036275335050E-013          11           4          11           1
  1.227410931658500E-002          15           4          11           1
  3.163023653925899E-004          16           4          11           1
  7.034346080614633E-013          12           4          12           1
 -3.163023653926008E-004          15           4          12           1
  1.227410931658523E-002          16           4          12           1
  4.619215979769636E-013          13           4          13           1
  3.548452029149996E-003          14           4          13           1
  1.247998793831530E-002          17           4          13           1
 -2.387413183813081E-013          18           4          13           1
 -1.705664689349851E-013          14           4          14           1
  4.594360916015949E-013          17           4          14           1
 -7.363122588088416E-003          18           4          14           1
  5.579529893662283E-013          15           4          15           1
  5.573605677466550E-013          16           4          16           1
  4.206852964941388E-013          17           4          17           1
  2.393104636602152E-003          18           4          17           1
 -2.590817100786569E-013          18           4          18           1
  0.793852724822867                5           5           1           1
  2.861072490034644E-011           8           5           1           1
  3.311131924199628E-011           9           5           1           1
 -0.295044073145136               11           5           1           1
 -4.422290400194945E-002          12           5           1           1
 -2.352329442345535E-011          15           5           1           1
 -4.151103072391749E-012          16           5           1           1
 -5.495603971894525E-015           5           5           2           1
 -1.852684672343230E-015           6           5           2           1
 -0.297257425207476                8           5           2           1
 -0.344002760942210                9           5           2           1
  3.654195002145144E-015          12           5           2           1
  0.244363584565793               15           5           2           1
  4.309027958166022E-002          16           5           2           1
 -6.955236969188909E-003           5           5           3           1
 -2.812849779487703E-013           8           5           3           1
 -3.255490495235325E-013           9           5           3           1
  8.923637082219927E-003          11           5           3           1
  1.337526091707414E-003          12           5           3           1
  4.032486150551406E-013          15           5           3           1
  7.119874351549371E-014          16           5           3           1
 -4.115757214206983E-013           5           5           4           1
 -5.451373023569482E-003           8           5           4           1
 -6.308630876839826E-003           9           5           4           1
  4.520966934151716E-013          11           5           4           1
  6.788336169225029E-014          12           5           4           1
  8.952353459051789E-003          15           5           4           1
  1.578628886746103E-003          16           5           4           1
  3.832571299966571E-003           7           5           5           1
 -2.447833602481353E-013          10           5           5           1
 -2.627885973063848E-013          13           5           5           1
 -9.339982274720699E-003          14           5           5           1
  5.409624910462874E-003          17           5           5           1
 -3.458552888524480E-013          18           5           5           1
  4.740131898106625E-014           8           5           7           1
  5.486236465124250E-014           9           5           7           1
  1.787271449914347E-003          11           5           7           1
  2.678865327218657E-004          12           5           7           1
  1.040721328560146E-013          15           5           7           1
  1.838408440237027E-014          16           5           7           1
 -3.559168968641936E-003          10           5           8           1
 -3.873649930366402E-003          13           5           8           1
 -3.180355284682079E-013          14           5           8           1
  1.830779451650333E-013          17           5           8           1
 -5.067852097273553E-003          18           5           8           1
 -4.118867513630989E-003          10           5           9           1
 -4.482802305239538E-003          13           5           9           1
 -3.680909743675187E-013          14           5           9           1
  2.119029778036019E-013          17           5           9           1
 -5.864799213315071E-003          18           5           9           1
 -1.280334345488132E-013          11           5          10           1
 -1.922759369256399E-014          12           5          10           1
 -1.937918728814536E-003          15           5          10           1
 -3.417262845424931E-004          16           5          10           1
  2.913619866207195E-013          13           5          11           1
  1.038334813677847E-002          14           5          11           1
 -6.004171167583552E-003          17           5          11           1
  3.885364252553813E-013          18           5          11           1
  4.374872317712553E-014          13           5          12           1
  1.556315986885451E-003          14           5          12           1
 -8.999397355279420E-004          17           5          12           1
  5.833528105014807E-014          18           5          12           1
 -3.363153676695005E-003          15           5          13           1
 -5.930475789278597E-004          16           5          13           1
 -3.022573510924609E-013          15           5          14           1
 -5.337372796336559E-014          16           5          14           1
 -2.747290242521849E-013          17           5          15           1
  7.616265553609145E-003          18           5          15           1
 -4.851858931981257E-014          17           5          16           1
  1.343027491826725E-003          18           5          16           1
  0.793852724822863                6           6           1           1
 -3.311180843401651E-011           8           6           1           1
  2.861168593715213E-011           9           6           1           1
  4.422290400194967E-002          11           6           1           1
 -0.295044073145137               12           6           1           1
  4.149527943475562E-012          15           6           1           1