 &FCI NORB=          18 , NELEC=          18 , MS2=           0 ,
 ORBSYM=1,1,1,1,1,1,1,1,1,1,1,1,1,1,1,1,1,1,
 ISYM=0,
 /
   2.8655380188178667                1           1           1           1
  -9.7748430945896576E-011           2           1           1           1
  0.25957094943041226                3           1           1           1
  -1.6431483073047620E-011           4           1           1           1
  -6.4257962562714196E-002           7           1           1           1
  -4.6288853826348397E-012          10           1           1           1
   6.1771083040285113E-012          13           1           1           1
 -0.21104573872998497               14           1           1           1
 -0.12986618437125372               17           1           1           1
  -1.1539100404356351E-011          18           1           1           1
   2.4907186417438472                2           1           2           1
  -5.1248298139905391E-012           3           1           2           1
  0.27885906208424149                4           1           2           1
   1.1129740792176213E-012           7           1           2           1
   8.1298970045284927E-002          10           1           2           1
 -0.10251287396330305               13           1           2           1
   4.0730893050705541E-012          14           1           2           1
   2.6934118997623546E-012          17           1           2           1
  0.19693417029672325               18           1           2           1
   4.1469256482604619E-002           3           1           3           1
  -1.7146155914353478E-012           4           1           3           1
  -6.6235475789836028E-003           7           1           3           1
  -6.1358058391081105E-013          10           1           3           1
   5.3510321174066178E-013          13           1           3           1
  -3.1440665168524840E-002          14           1           3           1
  -2.4847450642673765E-002          17           1           3           1
  -1.2611895035263831E-012          18           1           3           1
   4.7623781701131657E-002           4           1           4           1
   4.8838342224521991E-013           7           1           4           1
   1.0848418797217549E-002          10           1           4           1
  -2.0571256055252334E-002          13           1           4           1
   1.4550448519667913E-012          14           1           4           1
   7.9705816599662249E-013          17           1           4           1
   3.2521397753766328E-002          18           1           4           1
   1.9384632188097883E-002           5           1           5           1
   8.2168993831288617E-013           8           1           5           1
  -1.0311196341206141E-014           9           1           5           1
   1.1606464140969407E-002          11           1           5           1
  -1.9951902017626189E-002          12           1           5           1
   4.3613420167010197E-013          15           1           5           1
   7.4100447999825292E-013          16           1           5           1
   1.9384632188097699E-002           6           1           6           1
   1.0137723993608461E-014           8           1           6           1
   8.2167909629116131E-013           9           1           6           1
   1.9951902017626096E-002          11           1           6           1
   1.1606464140969344E-002          12           1           6           1
   7.4071760010341325E-013          15           1           6           1
  -4.3677474831360641E-013          16           1           6           1
   1.9777699875208291E-002           7           1           7           1
  -6.5843164254175690E-013          10           1           7           1
  -9.2361361614390347E-013          13           1           7           1
   1.8475251565164781E-002          14           1           7           1
  -1.6070589721379827E-002          17           1           7           1
   1.8693380177126073E-014          18           1           7           1
   2.2619920964388657E-002           8           1           8           1
   5.0294447426213473E-013          11           1           8           1
  -8.4005545575305263E-013          12           1           8           1
   1.2276241754949058E-002          15           1           8           1
   2.0252660810221659E-002          16           1           8           1
   2.2619920964388529E-002           9           1           9           1
   8.4027305512907047E-013          11           1           9           1
   5.0235770404638558E-013          12           1           9           1
   2.0252660810221597E-002          15           1           9           1
  -1.2276241754949031E-002          16           1           9           1
   2.5739099475568711E-002          10           1          10           1
   1.6867221727333639E-002          13           1          10           1
  -7.7508312268381729E-014          14           1          10           1
   1.1787723575018560E-012          17           1          10           1
   1.6910760007148987E-002          18           1          10           1
   2.7586132994662511E-002          11           1          11           1
   1.0284295659003517E-012          15           1          11           1
  -5.8247677514611240E-015          16           1          11           1
   2.7586132994662508E-002          12           1          12           1
  -5.8373444966619559E-015          15           1          12           1
  -1.0284047918807104E-012          16           1          12           1
   2.8943467020859703E-002          13           1          13           1
  -1.0106646422536336E-012          14           1          13           1
   5.8173431349839433E-013          17           1          13           1
  -5.2287255514892605E-003          18           1          13           1
   3.3603134729441875E-002          14           1          14           1
   4.4114965939336392E-003          17           1          14           1
   8.2855380542645740E-013          18           1          14           1
   2.4900378593109125E-002          15           1          15           1
   2.4900378593109174E-002          16           1          16           1
   3.6521326164386303E-002          17           1          17           1
   9.5596013743870500E-013          18           1          17           1
   2.6272930475482140E-002          18           1          18           1
   2.8655596241391010                2           2           1           1
  -5.1532765684911275E-012           3           2           1           1
  0.27977369594850576                4           2           1           1
   9.6635633523023401E-013           7           2           1           1
   7.3365307074995195E-002          10           2           1           1
 -0.10951429464733513               13           2           1           1
   3.9971472312605449E-012          14           2           1           1
   2.8413018465789364E-012          17           2           1           1
  0.19463172451525726               18           2           1           1
   9.7742490518337266E-011           2           2           2           1
  0.26098776936001350                3           2           2           1
   5.4733171120369128E-012           4           2           2           1
  -5.6794872222866007E-002           7           2           2           1
   1.5952094246235449E-012          10           2           2           1
  -2.0074083454529879E-012          13           2           2           1
 -0.20718499642390226               14           2           2           1
 -0.13734175475048663               17           2           2           1
   3.8712978135679865E-012          18           2           2           1
   4.3683979812453498E-002           4           2           3           1
   1.5669177611239246E-002          10           2           3           1
  -1.3583779556744262E-002          13           2           3           1
   2.3160726808635346E-015          14           2           3           1
  -1.1479532602276521E-015          17           2           3           1
   3.2160898005422336E-002          18           2           3           1
   1.5897520929883391E-015           4           2           4           1
  -1.2427364431669984E-002           7           2           4           1
   1.4337489528948311E-015          10           2           4           1
   2.4958334010616312E-015          13           2           4           1
  -3.7042418526734511E-002          14           2           4           1
  -2.0348578877004579E-002          17           2           4           1
   1.8246038360758554E-015          18           2           4           1
   2.0556473190325164E-015           5           2           5           1
  -2.1016662253066781E-002           8           2           5           1
   2.6057290603443122E-004           9           2           5           1
   1.4549993154755470E-015          11           2           5           1
  -1.5508427875232655E-015          12           2           5           1
  -1.1161570285892750E-002          15           2           5           1
  -1.8939515741200622E-002          16           2           5           1
   1.9999193273667615E-015           6           2           6           1
  -2.6057290603445247E-004           8           2           6           1
  -2.1016662253066625E-002           9           2           6           1
   1.9002811477153436E-015          11           2           6           1
  -1.8939515741200532E-002          15           2           6           1
   1.1161570285892711E-002          16           2           6           1
   5.3342746886286818E-015           7           2           7           1
   1.6926177057328174E-002          10           2           7           1
   2.3652827699525591E-002          13           2           7           1
   3.6463887465032485E-015          14           2           7           1
  -5.6569332551603679E-015          17           2           7           1
  -4.6613912084978153E-004          18           2           7           1
  -2.3661628212323649E-015           8           2           8           1
  -1.2767400056618064E-002          11           2           8           1
   2.1334585041732006E-002          12           2           8           1
  -1.1999949645069563E-015          15           2           8           1
  -1.6740081543176188E-015          16           2           8           1
  -2.2529721144248782E-015           9           2           9           1
  -2.1334585041731961E-002          11           2           9           1
  -1.2767400056618011E-002          12           2           9           1
  -1.9422397717905326E-015          15           2           9           1
  -6.8799133057240169E-015          10           2          10           1
  -6.5433769513845164E-015          13           2          10           1
   1.9288783295793267E-003          14           2          10           1
  -2.9893731693276818E-002          17           2          10           1
  -2.2698856683156521E-015          18           2          10           1
   2.1391308863139002E-015          11           2          11           1
  -2.6285216130456174E-002          15           2          11           1
   1.4886325498564062E-004          16           2          11           1
   2.1805474093028465E-015          12           2          12           1
   1.4886325498562674E-004          15           2          12           1
   2.6285216130456195E-002          16           2          12           1
  -7.1349176566926076E-015          13           2          13           1
   2.5675412905802504E-002          14           2          13           1
  -1.4684144778584172E-002          17           2          13           1
  -2.5682581061836629E-015          18           2          13           1
  -4.7765610911021383E-015          17           2          14           1
  -2.1093088038369005E-002          18           2          14           1
  -1.8094250056610583E-015          15           2          15           1
  -1.7884999037320881E-015          16           2          16           1
   6.9146077752435531E-015          17           2          17           1
  -2.4401842158238443E-002          18           2          17           1
  0.83282686493082492                3           3           1           1
  -1.7186585488104811E-011           4           3           1           1
   2.2541775876310274E-002           7           3           1           1
  -5.8171245598259702E-012          10           3           1           1
   2.5506124989860268E-012          13           3           1           1
 -0.19773535686512494               14           3           1           1
 -0.16789752427972177               17           3           1           1
  -7.5673772803597217E-012          18           3           1           1
  -8.5994579512860270E-015           3           3           2           1
  0.43797508025873583                4           3           2           1
  -1.4363510381087963E-015           7           3           2           1
  0.14823631599284806               10           3           2           1
  -6.4928342324069466E-002          13           3           2           1
   1.0356299151581538E-014          14           3           2           1
  -1.8249290967276011E-015          17           3           2           1
  0.19283767184974188               18           3           2           1
   8.9229084159953755E-003           3           3           3           1
  -2.3523134937315782E-013           4           3           3           1
  -4.8729515780614532E-003           7           3           3           1
  -2.9911945316485333E-014          10           3           3           1
   9.7502518212055911E-014          13           3           3           1
  -8.8386699650265122E-003          14           3           3           1
  -5.1879671369805067E-003          17           3           3           1
  -1.5857280766251591E-013          18           3           3           1
   1.1944180468074234E-002           4           3           4           1
  -1.8077987024023301E-014           7           3           4           1
   7.0093527078245055E-003          10           3           4           1
  -2.2997672508609512E-003          13           3           4           1
   1.6387824257335648E-013          14           3           4           1
   1.7366186613743118E-013          17           3           4           1
   9.8161656992633000E-003          18           3           4           1
  -2.0484356692702429E-002           5           3           5           1
  -3.8379195654858478E-013           8           3           5           1
   4.8220975823465295E-015           9           3           5           1
  -5.6718272470814568E-003          11           3           5           1
   9.7500617001191215E-003          12           3           5           1
  -1.0425080937404019E-013          15           3           5           1
  -1.7734771984301290E-013          16           3           5           1
  -2.0484356692702248E-002           6           3           6           1
  -4.7379634937616544E-015           8           3           6           1
  -3.8379065550597780E-013           9           3           6           1
  -9.7500617001190799E-003          11           3           6           1
  -5.6718272470814273E-003          12           3           6           1
  -1.7721284509275570E-013          15           3           6           1
   1.0455612070581211E-013          16           3           6           1
  -1.9196469999968931E-002           7           3           7           1
   3.6488520538391356E-013          10           3           7           1
   1.7585238820672089E-013          13           3           7           1
  -1.7004888987060315E-003          14           3           7           1
   1.2389551470681791E-002          17           3           7           1
   1.1551089945660564E-013          18           3           7           1
  -2.1116162865807885E-002           8           3           8           1
  -1.2295069476420117E-013          11           3           8           1
   2.0524727750714788E-013          12           3           8           1
  -5.8677999103135025E-003          15           3           8           1
  -9.6803699094569953E-003          16           3           8           1
  -2.1116162865807749E-002           9           3           9           1
  -2.0536816604938002E-013          11           3           9           1
  -1.2264494975156026E-013          12           3           9           1
  -9.6803699094569606E-003          15           3           9           1
   5.8677999103134842E-003          16           3           9           1
  -1.8367514438453220E-002          10           3          10           1
  -1.1775327176295050E-002          13           3          10           1
   1.2452885944647107E-013          14           3          10           1
  -1.9762316783022982E-013          17           3          10           1
  -1.8629013548396656E-003          18           3          10           1
  -1.2573830652773735E-002          11           3          11           1
  -2.2918066099400503E-013          15           3          11           1
   1.2995247239411256E-015          16           3          11           1
  -1.2573830652773730E-002          12           3          12           1
   1.3040783730655647E-015          15           3          12           1
   2.2916044062348817E-013          16           3          12           1
  -8.8179574082935981E-003          13           3          13           1
   1.1234936592163791E-014          14           3          13           1
  -2.7468478880354752E-013          17           3          13           1
  -7.4741627544288279E-003          18           3          13           1
   4.1538108875624489E-003          14           3          14           1
   1.1362175689186536E-002          17           3          14           1
   1.7199262847267249E-013          18           3          14           1
  -1.1041462180162059E-002          15           3          15           1
  -1.1041462180162071E-002          16           3          16           1
  -8.6778432544559643E-003          17           3          17           1
  -4.2804301769727715E-015          18           3          17           1
   4.6103767306195712E-003          18           3          18           1
  0.83743594778559893                4           4           1           1
   7.4419255480240309E-012           7           4           1           1
   8.2084378710661710E-002          10           4           1           1
 -0.15870248545630866               13           4           1           1
   9.5123423027310139E-012          14           4           1           1
   4.6034009937301335E-012          17           4           1           1
  0.20093278332895215               18           4           1           1
   7.6631409551275453E-015           4           4           2           1
 -0.18960863277357831                7           4           2           1
   5.0237591864288333E-015          10           4           2           1
   5.6898930012039273E-015          13           4           2           1
 -0.24225383554635527               14           4           2           1
 -0.11744166068704413               17           4           2           1
   6.7255229163620811E-015          18           4           2           1
   1.3009636162942893E-002           4           4           3           1
   1.3805905203778668E-013           7           4           3           1
  -1.0555741178955740E-003          10           4           3           1
  -7.8137926472647869E-003          13           4           3           1
   2.2332504769073669E-013          14           4           3           1
   6.6666290543526685E-014          17           4           3           1
   8.3573492775606464E-003          18           4           3           1
  -2.5904120157498739E-013           4           4           4           1
  -1.4717996930029744E-003           7           4           4           1
  -1.0272219273105287E-013          10           4           4           1
   9.5118140794325789E-014          13           4           4           1
  -9.9228080432280166E-003          14           4           4           1
  -6.6984466878133335E-003          17           4           4           1
  -1.8410831669965488E-013          18           4           4           1
   3.9171530602510884E-013           5           4           5           1
   2.2419500091990160E-002           8           4           5           1
  -2.7796584540711131E-004           9           4           5           1
   1.2962309177411147E-013          11           4           5           1
  -2.2334044336158598E-013          12           4           5           1
   5.5767864201856053E-003          15           4           5           1
   9.4629726360201845E-003          16           4           5           1
   3.9180225903934218E-013           6           4           6           1
   2.7796584540711175E-004           8           4           6           1
   2.2419500091989980E-002           9           4           6           1
   2.2316740469485730E-013          11           4           6           1
   1.2993165571240084E-013          12           4           6           1
   9.4629726360201342E-003          15           4           6           1
  -5.5767864201855775E-003          16           4           6           1
   3.6599022423811078E-013           7           4           7           1
  -2.1014012866001571E-002          10           4           7           1
  -9.9803729042251630E-003          13           4           7           1
   9.4270945216745616E-014          14           4           7           1
  -2.1962466567604366E-013          17           4           7           1
  -3.5399623435239543E-003          18           4           7           1
   4.7338175046540698E-013           8           4           8           1
   7.2945225045652909E-003          11           4           8           1
  -1.2189295394703852E-002          12           4           8           1
   1.2047199175746481E-013          15           4           8           1
   1.9859634770025281E-013          16           4           8           1
   4.7326834291816500E-013           9           4           9           1
   1.2189295394703824E-002          11           4           9           1
   7.2945225045652632E-003          12           4           9           1
   1.9873198139203074E-013          15           4           9           1
  -1.2024842926949830E-013          16           4           9           1
   4.3369648150548556E-013          10           4          10           1
   2.8195154544441436E-013          13           4          10           1
  -1.0845623593800629E-002          14           4          10           1
   9.8292371677994924E-003          17           4          10           1
  -1.4481471577454386E-014          18           4          10           1
   2.8709798210665993E-013          11           4          11           1
   1.2277986752839486E-002          15           4          11           1
  -6.9534945561297232E-005          16           4          11           1
   2.8704469356988227E-013          12           4          12           1
  -6.9534945561297232E-005          15           4          12           1
  -1.2277986752839492E-002          16           4          12           1
   1.8873097529237270E-013          13           4          13           1
  -3.5484521854355173E-003          14           4          13           1
   1.2479988289546294E-002          17           4          13           1
   9.7516612840298222E-014          18           4          13           1
  -7.0913327293586903E-014          14           4          14           1
  -1.8656083622392572E-013          17           4          14           1
  -7.3631227965919744E-003          18           4          14           1
   2.2671003529345368E-013          15           4          15           1
   2.2669713328760110E-013          16           4          16           1
   1.7081128178553229E-013          17           4          17           1
  -2.3931046660184479E-003          18           4          17           1
  -1.0458951413272466E-013          18           4          18           1
  0.79385273168415704                5           5           1           1
   1.7843004851414435E-011           8           5           1           1
  -2.2333523919115805E-013           9           5           1           1
  0.15001470361826774               11           5           1           1
 -0.25788031836756464               12           5           1           1
   4.9392920309365707E-012          15           5           1           1
   8.3940632222834211E-012          16           5           1           1
  -2.3259172365897030E-014           5           5           2           1
   1.2587153541687712E-014           6           5           2           1
 -0.45460764676904630                8           5           2           1
   5.6364057335891588E-003           9           5           2           1
  -2.0608514894604468E-015          11           5           2           1
   1.5182299861749016E-014          12           5           2           1
 -0.12598214163265664               15           5           2           1
 -0.21377285574034446               16           5           2           1
   6.9552371129540441E-003           5           5           3           1
   1.7577172356508797E-013           8           5           3           1
  -2.2388774861825667E-015           9           5           3           1
   4.5372094980728438E-003          11           5           3           1
  -7.7996156486148938E-003          12           5           3           1
   8.4706655752164739E-014          15           5           3           1
   1.4408699927637159E-013          16           5           3           1
  -1.6851320686073201E-013           5           5           4           1
  -8.3370024392135800E-003           8           5           4           1
   1.0336545960741919E-004           9           5           4           1
  -9.3777958488916457E-014          11           5           4           1
   1.6160250221330941E-013          12           5           4           1
  -4.6154039714906203E-003          15           5           4           1
  -7.8316503799228041E-003          16           5           4           1
   3.8325713548994769E-003           7           5           5           1
   9.9996969255347623E-014          10           5           5           1
  -1.0747734082924842E-013          13           5           5           1
   9.3399828347551957E-003          14           5           5           1
   5.4096251201338303E-003          17           5           5           1
   1.4102846494778998E-013          18           5           5           1
   2.9542123955450528E-014           8           5           7           1
  -9.0873540119286011E-004          11           5           7           1
   1.5621467024180113E-003          12           5           7           1
  -2.1831820205819863E-014          15           5           7           1
  -3.7179460898872918E-014          16           5           7           1
   5.4431793331145934E-003          10           5           8           1
  -5.9241276796868714E-003          13           5           8           1
   1.9883192450354317E-013          14           5           8           1
   1.1422174241593891E-013          17           5           8           1
   7.7504688187719061E-003          18           5           8           1
  -6.7486694120009379E-005          10           5           9           1
   7.3449682286720280E-005          13           5           9           1
  -2.5359697396299210E-015          14           5           9           1
  -1.8476833663061670E-015          17           5           9           1
  -9.6093383379275242E-005          18           5           9           1
  -2.6507116814011855E-014          11           5          10           1
   4.5715601443285792E-014          12           5          10           1
  -9.9909796757114604E-004          15           5          10           1
  -1.6953198518788763E-003          16           5          10           1
  -6.0472270637171310E-014          13           5          11           1
   5.2793975335494459E-003          14           5          11           1
   3.0528116137588930E-003          17           5          11           1
   8.0386313382717345E-014          18           5          11           1
   1.0420670945067434E-013          13           5          12           1
  -9.0754618307620095E-003          14           5          12           1
  -5.2478857864201676E-003          17           5          12           1
  -1.3852229096850827E-013          18           5          12           1
   1.7338807436944532E-003          15           5          13           1
   2.9421363479717202E-003          16           5          13           1
  -6.3628247636005053E-014          15           5          14           1
  -1.0825715324180862E-013          16           5          14           1