 &FCI NORB=          18 , NELEC=          18 , MS2=           0 ,
 ORBSYM=1,1,1,1,1,1,1,1,1,1,1,1,1,1,1,1,1,1,
 ISYM=0,
 /
   2.8655380188178663                1           1           1           1
  -9.7748233214525369E-011           2           1           1           1
  0.25957094943041220                3           1           1           1
  -1.6431438837598983E-011           4           1           1           1
  -6.4257962562714196E-002           7           1           1           1
  -4.6288784437409358E-012          10           1           1           1
   6.1771083040285113E-012          13           1           1           1
 -0.21104573872998494               14           1           1           1
 -0.12986618437125366               17           1           1           1
  -1.1538961626478272E-011          18           1           1           1
   2.4907186417438472                2           1           2           1
  -5.1248495464700783E-012           3           1           2           1
  0.27885906208424160                4           1           2           1
   1.1129914264523810E-012           7           1           2           1
   8.1298970045284941E-002          10           1           2           1
 -0.10251287396330307               13           1           2           1
   4.0730858356236022E-012          14           1           2           1
   2.6934014914214988E-012          17           1           2           1
  0.19693417029672336               18           1           2           1
   4.1469256482604633E-002           3           1           3           1
  -1.7146214461270792E-012           4           1           3           1
  -6.6235475789836011E-003           7           1           3           1
  -6.1358123443211454E-013          10           1           3           1
   5.3510364542153077E-013          13           1           3           1
  -3.1440665168524846E-002          14           1           3           1
  -2.4847450642673765E-002          17           1           3           1
  -1.2611882024837762E-012          18           1           3           1
   4.7623781701131664E-002           4           1           4           1
   4.8838147068130944E-013           7           1           4           1
   1.0848418797217549E-002          10           1           4           1
  -2.0571256055252327E-002          13           1           4           1
   1.4550446351263568E-012          14           1           4           1
   7.9705773231575350E-013          17           1           4           1
   3.2521397753766328E-002          18           1           4           1
   1.9384632188097883E-002           5           1           5           1
   8.2168993831288617E-013           8           1           5           1
  -1.0311196341206141E-014           9           1           5           1
   1.1606464140969407E-002          11           1           5           1
  -1.9951902017626186E-002          12           1           5           1
   4.3613333430836398E-013          15           1           5           1
   7.4100447999825292E-013          16           1           5           1
   1.9384632188097699E-002           6           1           6           1
   1.0137723993608461E-014           8           1           6           1
   8.2167736156768534E-013           9           1           6           1
   1.9951902017626096E-002          11           1           6           1
   1.1606464140969344E-002          12           1           6           1
   7.4071760010341325E-013          15           1           6           1
  -4.3677561567534440E-013          16           1           6           1
   1.9777699875208291E-002           7           1           7           1
  -6.5843164254175690E-013          10           1           7           1
  -9.2361708559085542E-013          13           1           7           1
   1.8475251565164781E-002          14           1           7           1
  -1.6070589721379827E-002          17           1           7           1
   1.8692512815388085E-014          18           1           7           1
   2.2619920964388654E-002           8           1           8           1
   5.0294447426213473E-013          11           1           8           1
  -8.4005545575305263E-013          12           1           8           1
   1.2276241754949058E-002          15           1           8           1
   2.0252660810221659E-002          16           1           8           1
   2.2619920964388529E-002           9           1           9           1
   8.4027132040559449E-013          11           1           9           1
   5.0235857140812357E-013          12           1           9           1
   2.0252660810221600E-002          15           1           9           1
  -1.2276241754949031E-002          16           1           9           1
   2.5739099475568711E-002          10           1          10           1
   1.6867221727333639E-002          13           1          10           1
  -7.7510046991857706E-014          14           1          10           1
   1.1787758269488080E-012          17           1          10           1
   1.6910760007148994E-002          18           1          10           1
   2.7586132994662511E-002          11           1          11           1
   1.0284313006238277E-012          15           1          11           1
  -5.8256351131991124E-015          16           1          11           1
   2.7586132994662508E-002          12           1          12           1
  -5.8373444966619559E-015          15           1          12           1
  -1.0283995877102825E-012          16           1          12           1
   2.8943467020859703E-002          13           1          13           1
  -1.0106646422536336E-012          14           1          13           1
   5.8173431349839433E-013          17           1          13           1
  -5.2287255514892588E-003          18           1          13           1
   3.3603134729441875E-002          14           1          14           1
   4.4114965939336392E-003          17           1          14           1
   8.2855467278819539E-013          18           1          14           1
   2.4900378593109125E-002          15           1          15           1
   2.4900378593109174E-002          16           1          16           1
   3.6521326164386296E-002          17           1          17           1
   9.5595580063001506E-013          18           1          17           1
   2.6272930475482140E-002          18           1          18           1
   2.8655596241391010                2           2           1           1
  -5.1532804716189484E-012           3           2           1           1
  0.27977369594850582                4           2           1           1
   9.6635980467718596E-013           7           2           1           1
   7.3365307074995181E-002          10           2           1           1
 -0.10951429464733514               13           2           1           1
   3.9971021284501695E-012          14           2           1           1
   2.8413226632606481E-012          17           2           1           1
  0.19463172451525729               18           2           1           1
   9.7742450917852916E-011           2           2           2           1
  0.26098776936001350                3           2           2           1
   5.4733154044184912E-012           4           2           2           1
  -5.6794872222866014E-002           7           2           2           1
   1.5952233024113527E-012          10           2           2           1
  -2.0074083454529879E-012          13           2           2           1
 -0.20718499642390228               14           2           2           1
 -0.13734175475048666               17           2           2           1
   3.8712839357801787E-012          18           2           2           1
   4.3683979812453491E-002           4           2           3           1
   1.5669177611239246E-002          10           2           3           1
  -1.3583779556744262E-002          13           2           3           1
   2.3160726808635346E-015          14           2           3           1
  -1.1492543028346347E-015          17           2           3           1
   3.2160898005422336E-002          18           2           3           1
  -1.2427364431669986E-002           7           2           4           1
   1.2162579970942389E-015          10           2           4           1
   1.5660216179380626E-015          13           2           4           1
  -3.7042418526734511E-002          14           2           4           1
  -2.0348578877004586E-002          17           2           4           1
   1.7664905996306324E-015          18           2           4           1
   2.0556473190325164E-015           5           2           5           1
  -2.1016662253066781E-002           8           2           5           1
   2.6057290603443122E-004           9           2           5           1
   1.4541319537375585E-015          11           2           5           1
  -1.5508427875232655E-015          12           2           5           1
  -1.1161570285892750E-002          15           2           5           1
  -1.8939515741200622E-002          16           2           5           1
   1.9999193273667615E-015           6           2           6           1
  -2.6057290603445247E-004           8           2           6           1
  -2.1016662253066622E-002           9           2           6           1
   1.9020158711913204E-015          11           2           6           1
  -1.8939515741200532E-002          15           2           6           1
   1.1161570285892711E-002          16           2           6           1
   5.3342746886286818E-015           7           2           7           1
   1.6926177057328174E-002          10           2           7           1
   2.3652827699525591E-002          13           2           7           1
   3.6455213847652601E-015          14           2           7           1
  -5.6569332551603679E-015          17           2           7           1
  -4.6613912084977980E-004          18           2           7           1
  -2.3661628212323649E-015           8           2           8           1
  -1.2767400056618064E-002          11           2           8           1
   2.1334585041732006E-002          12           2           8           1
  -1.1999949645069563E-015          15           2           8           1
  -1.6740081543176188E-015          16           2           8           1
  -2.2547068379008550E-015           9           2           9           1
  -2.1334585041731961E-002          11           2           9           1
  -1.2767400056618011E-002          12           2           9           1
  -1.9422397717905326E-015          15           2           9           1
  -6.8781785822480401E-015          10           2          10           1
  -6.5451116748604932E-015          13           2          10           1
   1.9288783295793276E-003          14           2          10           1
  -2.9893731693276818E-002          17           2          10           1
  -2.2716203917916289E-015          18           2          10           1
   2.1391308863139002E-015          11           2          11           1
  -2.6285216130456174E-002          15           2          11           1
   1.4886325498564062E-004          16           2          11           1
   2.1822821327788233E-015          12           2          12           1
   1.4886325498562674E-004          15           2          12           1
   2.6285216130456195E-002          16           2          12           1
  -7.1401218271205380E-015          13           2          13           1
   2.5675412905802504E-002          14           2          13           1
  -1.4684144778584171E-002          17           2          13           1
  -2.5647886592317093E-015          18           2          13           1
  -4.7774284528401267E-015          17           2          14           1
  -2.1093088038368998E-002          18           2          14           1
  -1.8092081652265612E-015          15           2          15           1
  -1.7902346272080649E-015          16           2          16           1
   6.9146077752435531E-015          17           2          17           1
  -2.4401842158238443E-002          18           2          17           1
  0.83282686493082481                3           3           1           1
  -1.7186569875593527E-011           4           3           1           1
   2.2541775876310274E-002           7           3           1           1
  -5.8171245598259702E-012          10           3           1           1
   2.5506541323494503E-012          13           3           1           1
 -0.19773535686512494               14           3           1           1
 -0.16789752427972165               17           3           1           1
  -7.5672107469060279E-012          18           3           1           1
  -8.5738707800153691E-015           3           3           2           1
  0.43797508025873588                4           3           2           1
  -1.4259426972529354E-015           7           3           2           1
  0.14823631599284806               10           3           2           1
  -6.4928342324069466E-002          13           3           2           1
   1.0332013022917863E-014          14           3           2           1
  -1.8179902028236938E-015          17           3           2           1
  0.19283767184974177               18           3           2           1
   8.9229084159953755E-003           3           3           3           1
  -2.3523144424084791E-013           4           3           3           1
  -4.8729515780614532E-003           7           3           3           1
  -2.9911836896268085E-014          10           3           3           1
   9.7503385573793899E-014          13           3           3           1
  -8.8386699650265139E-003          14           3           3           1
  -5.1879671369805059E-003          17           3           3           1
  -1.5857302450295041E-013          18           3           3           1
   1.1944180468074238E-002           4           3           4           1
  -1.8077770183588804E-014           7           3           4           1
   7.0093527078245055E-003          10           3           4           1
  -2.2997672508609512E-003          13           3           4           1
   1.6387802573292198E-013          14           3           4           1
   1.7366273349916916E-013          17           3           4           1
   9.8161656992633035E-003          18           3           4           1
  -2.0484356692702429E-002           5           3           5           1
  -3.8379369127206076E-013           8           3           5           1
   4.8216639014775353E-015           9           3           5           1
  -5.6718272470814568E-003          11           3           5           1
   9.7500617001191215E-003          12           3           5           1
  -1.0425167673577818E-013          15           3           5           1
  -1.7734425039606094E-013          16           3           5           1
  -2.0484356692702248E-002           6           3           6           1
  -4.7379634937616544E-015           8           3           6           1
  -3.8378892078250182E-013           9           3           6           1
  -9.7500617001190816E-003          11           3           6           1
  -5.6718272470814273E-003          12           3           6           1
  -1.7721306193319020E-013          15           3           6           1
   1.0455612070581211E-013          16           3           6           1
  -1.9196469999968931E-002           7           3           7           1
   3.6488694010738953E-013          10           3           7           1
   1.7585065348324491E-013          13           3           7           1
  -1.7004888987060306E-003          14           3           7           1
   1.2389551470681791E-002          17           3           7           1
   1.1551003209486765E-013          18           3           7           1
  -2.1116162865807885E-002           8           3           8           1
  -1.2294982740246319E-013          11           3           8           1
   2.0524554278367191E-013          12           3           8           1
  -5.8677999103135033E-003          15           3           8           1
  -9.6803699094569970E-003          16           3           8           1
  -2.1116162865807749E-002           9           3           9           1
  -2.0536990077285600E-013          11           3           9           1
  -1.2264494975156026E-013          12           3           9           1
  -9.6803699094569606E-003          15           3           9           1
   5.8677999103134842E-003          16           3           9           1
  -1.8367514438453220E-002          10           3          10           1
  -1.1775327176295050E-002          13           3          10           1
   1.2452885944647107E-013          14           3          10           1
  -1.9762316783022982E-013          17           3          10           1
  -1.8629013548396656E-003          18           3          10           1
  -1.2573830652773734E-002          11           3          11           1
  -2.2917870943009455E-013          15           3          11           1
   1.2997415643756227E-015          16           3          11           1
  -1.2573830652773730E-002          12           3          12           1
   1.3042952135000618E-015          15           3          12           1
   2.2916217534696415E-013          16           3          12           1
  -8.8179574082935981E-003          13           3          13           1
   1.1234936592163791E-014          14           3          13           1
  -2.7468652352702350E-013          17           3          13           1
  -7.4741627544288279E-003          18           3          13           1
   4.1538108875624489E-003          14           3          14           1
   1.1362175689186536E-002          17           3          14           1
   1.7199436319614847E-013          18           3          14           1
  -1.1041462180162059E-002          15           3          15           1
  -1.1041462180162071E-002          16           3          16           1
  -8.6778432544559626E-003          17           3          17           1
  -4.2778280917588063E-015          18           3          17           1
   4.6103767306195729E-003          18           3          18           1
  0.83743594778559893                4           4           1           1
   7.4419220785770790E-012           7           4           1           1
   8.2084378710661710E-002          10           4           1           1
 -0.15870248545630861               13           4           1           1
   9.5122451582163592E-012          14           4           1           1
   4.6034426270935569E-012          17           4           1           1
  0.20093278332895215               18           4           1           1
   7.6679114446864816E-015           4           4           2           1
 -0.18960863277357828                7           4           2           1
   5.0237591864288333E-015          10           4           2           1
   5.6898930012039273E-015          13           4           2           1
 -0.24225383554635524               14           4           2           1
 -0.11744166068704413               17           4           2           1
   7.6657430403415106E-015          18           4           2           1
   1.3009636162942893E-002           4           4           3           1
   1.3805926887822118E-013           7           4           3           1
  -1.0555741178955738E-003          10           4           3           1
  -7.8137926472647869E-003          13           4           3           1
   2.2332418032899870E-013          14           4           3           1
   6.6667157905264673E-014          17           4           3           1
   8.3573492775606464E-003          18           4           3           1
  -2.5904087631433564E-013           4           4           4           1
  -1.4717996930029744E-003           7           4           4           1
  -1.0272240957148737E-013          10           4           4           1
   9.5118466054977535E-014          13           4           4           1
  -9.9228080432280166E-003          14           4           4           1
  -6.6984466878133343E-003          17           4           4           1
  -1.8410885880074113E-013          18           4           4           1
   3.9171357130163287E-013           5           4           5           1
   2.2419500091990160E-002           8           4           5           1
  -2.7796584540711131E-004           9           4           5           1
   1.2962395913584945E-013          11           4           5           1
  -2.2334044336158598E-013          12           4           5           1
   5.5767864201856053E-003          15           4           5           1
   9.4629726360201845E-003          16           4           5           1
   3.9180225903934218E-013           6           4           6           1
   2.7796584540711088E-004           8           4           6           1
   2.2419500091989980E-002           9           4           6           1
   2.2316913941833327E-013          11           4           6           1
   1.2993339043587682E-013          12           4           6           1
   9.4629726360201342E-003          15           4           6           1
  -5.5767864201855775E-003          16           4           6           1
   3.6599022423811078E-013           7           4           7           1
  -2.1014012866001571E-002          10           4           7           1
  -9.9803729042251630E-003          13           4           7           1
   9.4271812578483605E-014          14           4           7           1
  -2.1962466567604366E-013          17           4           7           1
  -3.5399623435239539E-003          18           4           7           1
   4.7338001574193100E-013           8           4           8           1
   7.2945225045652909E-003          11           4           8           1
  -1.2189295394703852E-002          12           4           8           1
   1.2047090755529233E-013          15           4           8           1
   1.9859808242372878E-013          16           4           8           1
   4.7326834291816500E-013           9           4           9           1
   1.2189295394703826E-002          11           4           9           1
   7.2945225045652632E-003          12           4           9           1
   1.9873219823246524E-013          15           4           9           1
  -1.2024842926949830E-013          16           4           9           1
   4.3369821622896154E-013          10           4          10           1
   2.8195154544441436E-013          13           4          10           1
  -1.0845623593800629E-002          14           4          10           1
   9.8292371677994941E-003          17           4          10           1
  -1.4480604215716397E-014          18           4          10           1
   2.8709798210665993E-013          11           4          11           1
   1.2277986752839488E-002          15           4          11           1
  -6.9534945561297232E-005          16           4          11           1
   2.8704469356988227E-013          12           4          12           1
  -6.9534945561297665E-005          15           4          12           1
  -1.2277986752839493E-002          16           4          12           1
   1.8873271001584868E-013          13           4          13           1
  -3.5484521854355191E-003          14           4          13           1
   1.2479988289546294E-002          17           4          13           1
   9.7516612840298222E-014          18           4          13           1
  -7.0913327293586903E-014          14           4          14           1
  -1.8656170358566371E-013          17           4          14           1
  -7.3631227965919735E-003          18           4          14           1
   2.2671242053823315E-013          15           4          15           1
   2.2669192911717317E-013          16           4          16           1
   1.7081301650900826E-013          17           4          17           1
  -2.3931046660184479E-003          18           4          17           1
  -1.0458951413272466E-013          18           4          18           1
  0.79385273168415704                5           5           1           1
   1.7843004851414435E-011           8           5           1           1
  -2.2333523919115805E-013           9           5           1           1
  0.15001470361826774               11           5           1           1
 -0.25788031836756464               12           5           1           1
   4.9392503975731472E-012          15           5           1           1
   8.3941187334346523E-012          16           5           1           1
  -2.3286927941512658E-014           5           5           2           1
   1.2587153541687712E-014           6           5           2           1
 -0.45460764676904630                8           5           2           1
   5.6364057335891518E-003           9           5           2           1
  -2.0747292772682613E-015          11           5           2           1
   1.5182299861749016E-014          12           5           2           1
 -0.12598214163265664               15           5           2           1
 -0.21377285574034446               16           5           2           1
   6.9552371129540441E-003           5           5           3           1
   1.7577172356508797E-013           8           5           3           1
  -2.2388774861825667E-015           9           5           3           1
   4.5372094980728438E-003          11           5           3           1
  -7.7996156486148938E-003          12           5           3           1
   8.4706872592599236E-014          15           5           3           1
   1.4408699927637159E-013          16           5           3           1
  -1.6851320686073201E-013           5           5           4           1
  -8.3370024392135800E-003           8           5           4           1
   1.0336545960741919E-004           9           5           4           1
  -9.3777958488916457E-014          11           5           4           1
   1.6160250221330941E-013          12           5           4           1
  -4.6154039714906203E-003          15           5           4           1
  -7.8316503799228041E-003          16           5           4           1
   3.8325713548994760E-003           7           5           5           1
   9.9996969255347623E-014          10           5           5           1
  -1.0747734082924842E-013          13           5           5           1
   9.3399828347551922E-003          14           5           5           1
   5.4096251201338295E-003          17           5           5           1
   1.4102586286257601E-013          18           5           5           1
   2.9542557636319522E-014           8           5           7           1
  -9.0873540119286000E-004          11           5           7           1
   1.5621467024180113E-003          12           5           7           1
  -2.1831820205819863E-014          15           5           7           1
  -3.7179460898872918E-014          16           5           7           1
   5.4431793331145926E-003          10           5           8           1
  -5.9241276796868688E-003          13           5           8           1
   1.9882867189702572E-013          14           5           8           1
   1.1422130873506992E-013          17           5           8           1
   7.7504688187719113E-003          18           5           8           1
  -6.7486694120009379E-005          10           5           9           1
   7.3449682286720307E-005          13           5           9           1
  -2.5359934565524441E-015          14           5           9           1
  -1.4732846392243992E-015          17           5           9           1
  -9.6093383379275296E-005          18           5           9           1
  -2.6507116814011855E-014          11           5          10           1
   4.5716035124154786E-014          12           5          10           1
  -9.9909796757114604E-004          15           5          10           1
  -1.6953198518788759E-003          16           5          10           1
  -6.0471836956302316E-014          13           5          11           1
   5.2793975335494424E-003          14           5          11           1
   3.0528116137588939E-003          17           5          11           1
   8.0389349148800304E-014          18           5          11           1
   1.0420670945067434E-013          13           5          12           1
  -9.0754618307620043E-003          14           5          12           1
  -5.2478857864201658E-003          17           5          12           1
  -1.3851708679808034E-013          18           5          12           1
   1.7338807436944530E-003          15           5          13           1
   2.9421363479717202E-003          16           5          13           1
  -6.3628898157308544E-014          15           5          14           1
  -1.0825715324180862E-013          16           5          14           1
   5.7617037980216127E-014          17           5          15           1