 &FCI NORB=          18 , NELEC=          18 , MS2=           0 ,
 ORBSYM=1,1,1,1,1,1,1,1,1,1,1,1,1,1,1,1,1,1,
 ISYM=0,
 /
   2.86553801765709                1           1           1           1
  1.410965170384453E-010           2           1           1           1
 -0.259570956996003                3           1           1           1
 -2.371917741969369E-011           4           1           1           1
  6.425796584399296E-002           7           1           1           1
 -6.683494035986115E-012          10           1           1           1
 -8.905806647696579E-012          13           1           1           1
 -0.211045764408123               14           1           1           1
 -0.129866154056860               17           1           1           1
  1.668459814752055E-011          18           1           1           1
   2.49071864055455                2           1           2           1
 -7.392575917739008E-012           3           1           2           1
 -0.278859070190340                4           1           2           1
  1.607726105024021E-012           7           1           2           1
 -8.129897095795550E-002          10           1           2           1
 -0.102512884071891               13           1           2           1
 -5.853553752821483E-012          14           1           2           1
 -3.894769923240560E-012          17           1           2           1
  0.196934173490875               18           1           2           1
  4.146925918706441E-002           3           1           3           1
  2.474697123654515E-012           4           1           3           1
 -6.623547976383820E-003           7           1           3           1
  8.857361458863844E-013          10           1           3           1
  7.704930443663827E-013          13           1           3           1
  3.144067109058960E-002          14           1           3           1
  2.484744756680219E-002          17           1           3           1
 -1.823589890204147E-012          18           1           3           1
  4.762378483779201E-002           4           1           4           1
 -7.051108828759478E-013           7           1           4           1
  1.084841888339535E-002          10           1           4           1
  2.057125899204212E-002          13           1           4           1
  2.096296443723777E-012          14           1           4           1
  1.152152592082123E-012          17           1           4           1
 -3.252139942712975E-002          18           1           4           1
  1.938463442284040E-002           5           1           5           1
  1.185903399135782E-012           8           1           5           1
  1.195820786142887E-014           9           1           5           1
 -2.209815582821176E-002          11           1           5           1
 -6.667839464006165E-003          12           1           5           1
  1.240239248107011E-012          15           1           5           1
 -1.863992901002254E-014          16           1           5           1
  1.938463442284044E-002           6           1           6           1
 -1.183254882963780E-014           8           1           6           1
  1.185940993846113E-012           9           1           6           1
 -6.667839464006224E-003          11           1           6           1
  2.209815582821179E-002          12           1           6           1
 -1.869056125147761E-014          15           1           6           1
 -1.240723886478112E-012          16           1           6           1
  1.977770330675810E-002           7           1           7           1
  9.500724859612397E-013          10           1           7           1
 -1.333374383127861E-012          13           1           7           1
 -1.847525126311564E-002          14           1           7           1
  1.607059595212329E-002          17           1           7           1
  2.981686078595835E-014          18           1           7           1
  2.261992382962227E-002           8           1           8           1
 -1.349396316257037E-012          11           1           8           1
 -4.220918319725042E-013          12           1           8           1
  2.368252628568975E-002          15           1           8           1
 -1.204853211034965E-004          16           1           8           1
  2.261992382962227E-002           9           1           9           1
 -4.220618808874893E-013          11           1           9           1
  1.348916854951310E-012          12           1           9           1
 -1.204853211034667E-004          15           1           9           1
 -2.368252628568972E-002          16           1           9           1
  2.573910318361356E-002          10           1          10           1
 -1.686722437583875E-002          13           1          10           1
 -1.145270944052923E-013          14           1          10           1
  1.701317472319053E-012          17           1          10           1
 -1.691076293114767E-002          18           1          10           1
  2.758613862411329E-002          11           1          11           1
 -1.414517903307842E-012          15           1          11           1
  4.502948578247179E-013          16           1          11           1
  2.758613862411325E-002          12           1          12           1
 -4.503769319291751E-013          15           1          12           1
 -1.414585896336584E-012          16           1          12           1
  2.894347133599011E-002          13           1          13           1
  1.457978133839397E-012          14           1          13           1
 -8.401823345122877E-013          17           1          13           1
 -5.228724788685464E-003          18           1          13           1
  3.360313861103680E-002          14           1          14           1
  4.411496358657278E-003          17           1          14           1
 -1.196524650193265E-012          18           1          14           1
  2.490038371610147E-002          15           1          15           1
  2.490038371610141E-002          16           1          16           1
  3.652132990698456E-002          17           1          17           1
 -1.380508121012758E-012          18           1          17           1
  2.627293297859567E-002          18           1          18           1
   2.86555962296264                2           2           1           1
 -7.432226275388976E-012           3           2           1           1
 -0.279773704121420                4           2           1           1
  1.397427312754829E-012           7           2           1           1
 -7.336530766811902E-002          10           2           1           1
 -0.109514304900069               13           2           1           1
 -5.744679038022227E-012          14           2           1           1
 -4.106319451135931E-012          17           2           1           1
  0.194631727209773               18           2           1           1
 -1.410967503723054E-010           2           2           2           1
 -0.260987776959378                3           2           2           1
  7.900464082857134E-012           4           2           2           1
  5.679487512181550E-002           7           2           2           1
  2.302682350352470E-012          10           2           2           1
  2.907507568039591E-012          13           2           2           1
 -0.207185023244436               14           2           2           1
 -0.137341725376665               17           2           2           1
 -5.562703075945308E-012          18           2           2           1
  4.368398259066733E-002           4           2           3           1
 -1.542819691446873E-015           7           2           3           1
  1.566917864021518E-002          10           2           3           1
  1.358378143094903E-002          13           2           3           1
 -1.457384560255015E-015          14           2           3           1
 -1.056880277738870E-015          17           2           3           1
 -3.216090021132999E-002          18           2           3           1
 -1.242736581260373E-002           7           2           4           1
 -1.264613413987092E-015          10           2           4           1
  3.704242435324367E-002          14           2           4           1
  2.034857393943414E-002          17           2           4           1
 -2.064320936412400E-015          18           2           4           1
 -4.257865219257917E-015           5           2           5           1
  2.101721575946723E-002           8           2           5           1
  2.115156123303107E-004           9           2           5           1
  4.083552614976560E-015          11           2           5           1
  1.584182004327195E-015          12           2           5           1
  2.198124497537206E-002          15           2           5           1
 -3.330645986238402E-004          16           2           5           1
 -4.488976464850358E-015           6           2           6           1
 -2.115156123303411E-004           8           2           6           1
  2.101721575946726E-002           9           2           6           1
  1.527451125651891E-015          11           2           6           1
 -4.481441259751584E-015          12           2           6           1
 -3.330645986237553E-004          15           2           6           1
 -2.198124497537206E-002          16           2           6           1
 -7.865154924915907E-015           7           2           7           1
  1.692618026870207E-002          10           2           7           1
 -2.365283139726088E-002          13           2           7           1
  4.623688584781682E-015          14           2           7           1
 -9.228051265838810E-015          17           2           7           1
  4.661373848969577E-004          18           2           7           1
  5.355985837132704E-015           8           2           8           1
 -2.372958649290897E-002          11           2           8           1
 -7.421452200503955E-003          12           2           8           1
  4.439916316545389E-015          15           2           8           1
  4.778187394360867E-015           9           2           9           1
 -7.421452200503951E-003          11           2           9           1
  2.372958649290898E-002          12           2           9           1
 -4.311655199540354E-015          16           2           9           1
  9.935303448005417E-015          10           2          10           1
 -1.037820003546575E-014          13           2          10           1
 -1.928874755688962E-003          14           2          10           1
  2.989373627497977E-002          17           2          10           1
 -2.800060530661064E-015          18           2          10           1
 -3.837499708194553E-015          11           2          11           1
 -2.504708526675302E-002          15           2          11           1
  7.973615853024963E-003          16           2          11           1
 -4.719098375960407E-015          12           2          12           1
 -7.973615853024845E-003          15           2          12           1
 -2.504708526675296E-002          16           2          12           1
  1.025308310476092E-014          13           2          13           1
  2.567541388373734E-002          14           2          13           1
 -1.468415124971474E-002          17           2          13           1
  1.716508879479051E-015          18           2          13           1
 -5.817286756470974E-015          14           2          14           1
  4.159433214523389E-015          17           2          14           1
 -2.109309208778095E-002          18           2          14           1
  3.479530032157729E-015          15           2          15           1
  3.840677775812651E-015          16           2          16           1
 -1.015116810054728E-014          17           2          17           1
 -2.440184254267274E-002          18           2          17           1
  3.971649398248900E-015          18           2          18           1
  0.832826874401697                3           3           1           1
  2.481053004103201E-011           4           3           1           1
  2.254177287704878E-002           7           3           1           1
  8.398559625533153E-012          10           3           1           1
  3.673839010787106E-012          13           3           1           1
  0.197735386464440               14           3           1           1
  0.167897496463550               17           3           1           1
 -1.093675150443119E-011          18           3           1           1
  3.429548312006148E-015           3           3           2           1
  0.437975090458899                4           3           2           1
  0.148236318082098               10           3           2           1
  6.492835015196452E-002          13           3           2           1
 -1.284736206308423E-014          14           3           2           1
  2.609024107869118E-015          17           3           2           1
 -0.192837673424184               18           3           2           1
 -8.922909425023405E-003           3           3           3           1
 -3.388053743401441E-013           4           3           3           1
  4.872951823443177E-003           7           3           3           1
 -4.302504533204576E-014          10           3           3           1
 -1.401725957528299E-013          13           3           3           1
 -8.838671547520764E-003          14           3           3           1
 -5.187966447021052E-003          17           3           3           1
  2.293954956544830E-013          18           3           3           1
 -1.194418158420643E-002           4           3           4           1
 -2.577286799775036E-014           7           3           4           1
 -7.009353359813115E-003          10           3           4           1
 -2.299767802330286E-003          13           3           4           1
 -2.350887496824217E-013          14           3           4           1
 -2.507233786905316E-013          17           3           4           1
  9.816166756454570E-003          18           3           4           1
  2.048435695677216E-002           5           3           5           1
  5.537726310497759E-013           8           3           5           1
  5.590146401335261E-015           9           3           5           1
 -1.079888831223867E-002          11           3           5           1
 -3.258428179052558E-003          12           3           5           1
  2.965138985039362E-013          15           3           5           1
 -4.421376459395887E-015          16           3           5           1
  2.048435695677218E-002           6           3           6           1
 -5.511433323612813E-015           8           3           6           1
  5.537792446830281E-013           9           3           6           1
 -3.258428179052598E-003          11           3           6           1
  1.079888831223868E-002          12           3           6           1
 -4.444361545452580E-015          15           3           6           1
 -2.967548082266624E-013          16           3           6           1
  1.919647110728008E-002           7           3           7           1
  5.264851055120090E-013          10           3           7           1
 -2.541092336549866E-013          13           3           7           1
 -1.700486704606931E-003          14           3           7           1
  1.238955244976116E-002          17           3           7           1
 -1.662663062784731E-013          18           3           7           1
  2.111616330700982E-002           8           3           8           1
 -3.297950562815288E-013          11           3           8           1
 -1.031885080854389E-013          12           3           8           1
  1.131977632318562E-002          15           3           8           1
 -5.758958603766830E-005          16           3           8           1
  2.111616330700982E-002           9           3           9           1
 -1.031573372729799E-013          11           3           9           1
  3.295714395834537E-013          12           3           9           1
 -5.758958603763794E-005          15           3           9           1
 -1.131977632318560E-002          16           3           9           1
  1.836751524660282E-002          10           3          10           1
 -1.177532759677852E-002          13           3          10           1
 -1.804606811206533E-013          14           3          10           1
  2.847800120719945E-013          17           3          10           1
 -1.862901897829832E-003          18           3          10           1
  1.257383190338512E-002          11           3          11           1
 -3.151626637616645E-013          15           3          11           1
  1.003306595789843E-013          16           3          11           1
  1.257383190338510E-002          12           3          12           1
 -1.003641614261142E-013          15           3          12           1
 -3.152009903084618E-013          16           3          12           1
  8.817957133984857E-003          13           3          13           1
  1.814434019697941E-014          14           3          13           1
 -3.962685214686790E-013          17           3          13           1
  7.474163936480454E-003          18           3          13           1
 -4.153814607452439E-003          14           3          14           1
 -1.136217421292274E-002          17           3          14           1
  2.479180055692254E-013          18           3          14           1
  1.104146320847742E-002          15           3          15           1
  1.104146320847740E-002          16           3          16           1
  8.677846420436033E-003          17           3          17           1
 -4.937023012629993E-015          18           3          17           1
 -4.610376788561720E-003          18           3          18           1
  0.837435960112550                4           4           1           1
 -1.074064448491896E-011           7           4           1           1
  8.208437641695901E-002          10           4           1           1
  0.158702497575121               13           4           1           1
  1.370582813908783E-011          14           4           1           1
  6.659298112943191E-012          17           4           1           1
 -0.200932778594907               18           4           1           1
 -5.144288586691331E-015           4           4           2           1
 -0.189608638958452                7           4           2           1
 -2.112893193739751E-015          13           4           2           1
  0.242253858206016               14           4           2           1
  0.117441620971366               17           4           2           1
 -1.417789496915844E-014          18           4           2           1
 -1.300963741567961E-002           4           4           3           1
  1.990175331392091E-013           7           4           3           1
  1.055574162016126E-003          10           4           3           1
 -7.813793697759449E-003          13           4           3           1
 -3.210906475599462E-013          14           4           3           1
 -9.660637090638802E-014          17           4           3           1
  8.357349845631098E-003          18           4           3           1
 -3.734311283118343E-013           4           4           4           1
  1.471800015015477E-003           7           4           4           1
 -1.482926195034429E-013          10           4           4           1
 -1.368877884308506E-013          13           4           4           1
 -9.922810154530528E-003          14           4           4           1
 -6.698445607487296E-003          17           4           4           1
  2.670860494574656E-013          18           4           4           1
  5.635305590223627E-013           5           4           5           1
  2.242008818217291E-002           8           4           5           1
  2.256340104524038E-004           9           4           5           1
 -3.561010535925446E-013          11           4           5           1
 -1.073377497995409E-013          12           4           5           1
  1.098274643223732E-002          15           4           5           1
 -1.664129596089391E-004          16           4           5           1
  5.641153776742014E-013           6           4           6           1
 -2.256340104524240E-004           8           4           6           1
  2.242008818217293E-002           9           4           6           1
 -1.077554928965996E-013          11           4           6           1
  3.561014330633050E-013          12           4           6           1
 -1.664129596088827E-004          15           4           6           1
 -1.098274643223732E-002          16           4           6           1
  5.283473311634701E-013           7           4           7           1
  2.101401400294120E-002          10           4           7           1
 -9.980373206466015E-003          13           4           7           1
 -1.368946189045372E-013          14           4           7           1
  3.168992845914431E-013          17           4           7           1
 -3.539963235006631E-003          18           4           7           1
  6.856088505084734E-013           8           4           8           1
 -1.355765335006290E-002          11           4           8           1
 -4.240169811579353E-003          12           4           8           1
  3.361820370695323E-013          15           4           8           1
 -1.466275018069396E-015          16           4           8           1
  6.850063051511146E-013           9           4           9           1
 -4.240169811579365E-003          11           4           9           1
  1.355765335006289E-002          12           4           9           1
 -1.865695098413056E-015          15           4           9           1
 -3.361338984930740E-013          16           4           9           1
  6.261484386538285E-013          10           4          10           1
 -4.072792450515728E-013          13           4          10           1
 -1.084562238865329E-002          14           4          10           1
  9.829239239043146E-003          17           4          10           1
  2.215415351169980E-014          18           4          10           1
  4.140899862586922E-013          11           4          11           1
 -1.169964694472462E-002          15           4          11           1
  3.724524804372381E-003          16           4          11           1
  4.137185385943987E-013          12           4          12           1
 -3.724524804372310E-003          15           4          12           1
 -1.169964694472458E-002          16           4          12           1
  2.735997192693240E-013          13           4          13           1
  3.548449518785518E-003          14           4          13           1
 -1.247998932553198E-002          17           4          13           1
  1.402610666501047E-013          18           4          13           1
 -9.964685326879774E-014          14           4          14           1
 -2.698644259446770E-013          17           4          14           1
  7.363124024438689E-003          18           4          14           1
  3.278239225218416E-013          15           4          15           1
  3.280110558168126E-013          16           4          16           1
  2.457179425208178E-013          17           4          17           1
  2.393103083366219E-003          18           4          17           1
 -1.532255225478174E-013          18           4          18           1
  0.793852731360325                5           5           1           1
  2.575228572054833E-011           8           5           1           1
  2.595423875817460E-013           9           5           1           1
 -0.285620832788181               11           5           1           1
 -8.618247945269558E-002          12           5           1           1
  1.404647925751235E-011          15           5           1           1
 -2.112754415861673E-013          16           5           1           1
 -1.195051002600422E-014           5           5           2           1
  7.339615026857871E-015           6           5           2           1
  0.454619566805117                8           5           2           1
  4.575255692791342E-003           9           5           2           1
  2.726985304235541E-015          12           5           2           1
  0.248105237172670               15           5           2           1
 -3.759344446958204E-003          16           5           2           1
 -6.955237987299291E-003           5           5           3           1
 -2.529545956107392E-013           8           5           3           1
 -2.550551729454259E-015           9           5           3           1
  8.638631163470370E-003          11           5           3           1
  2.606597864299805E-003          12           5           3           1
 -2.406002643211974E-013          15           5           3           1
  3.584833168160384E-015          16           5           3           1
 -2.415896496255673E-013           5           5           4           1
 -8.337222053229785E-003           8           5           4           1
 -8.390514937394863E-005           9           5           4           1
  2.573769071945089E-013          11           5           4           1
  7.756588340374071E-014          12           5           4           1
 -9.089431262942205E-003          15           5           4           1
  1.377250368986268E-004          16           5           4           1
 -3.832571422844267E-003           7           5           5           1
  1.439065880348700E-013          10           5           5           1
  1.542203864612901E-013          13           5           5           1
  9.339983402003482E-003          14           5           5           1
  5.409623432817997E-003          17           5           5           1
 -2.036105659075638E-013          18           5           5           1
 -4.277608540818878E-014           8           5           7           1
 -1.730189091492249E-003          11           5           7           1
 -5.220627094011397E-004          12           5           7           1
  6.204433668222098E-014          15           5           7           1
  5.443322027469259E-003          10           5           8           1
  5.924283144939760E-003          13           5           8           1
  2.858885003731437E-013          14           5           8           1
  1.651469759555990E-013          17           5           8           1
 -7.750671544760364E-003          18           5           8           1
  5.478116630327623E-005          10           5           9           1
  5.962152129763574E-005          13           5           9           1
  2.887769098283352E-015          14           5           9           1
  1.668305928516703E-015          17           5           9           1
 -7.800215102338986E-005          18           5           9           1
  7.284865527652784E-014          11           5          10           1
  2.196496023260108E-014          12           5          10           1
 -1.967592118951983E-003          15           5          10           1
  2.981338318591719E-005          16           5          10           1
 -1.657285420009202E-013          13           5          11           1
 -1.005172129340399E-002          14           5          11           1
 -5.812405652243238E-003          17           5          11           1
  2.216707720159583E-013          18           5          11           1
 -4.994420675641376E-014          13           5          12           1
 -3.032979966399936E-003          14           5          12           1
 -1.753820006073157E-003          17           5          12           1
  6.680333369812885E-014          18           5          12           1
 -3.414650287583602E-003          15           5          13           1
  5.173952288639252E-005          16           5          13           1
 -1.801182900745824E-013          15           5          14           1
  2.673967818001000E-015          16           5          14           1
  1.642874204732525E-013          17           5          15           1
 -7.732884098120120E-003          18           5          15           1
 -2.449788690048887E-015          17           5          16           1
  1.171703395886244E-004          18           5          16           1
  0.793852731360325                6           6           1           1
 -2.566974410811440E-013           8           6           1           1
  2.575320512399060E-011           9           6           1           1
 -8.618247945269721E-002          11           6           1           1
  0.285620832788182               12           6           1           1
 -2.113864638886298E-013          15           6           1           1
 -1.405281446764661E-011          16           6           1           1
 -4.575255692791765E-003           8           6           2           1
  0.454619566805118                9           6           2           1
 -6.755013215453687E-015          11           6           2           1