 &FCI NORB=          15 , NELEC=          10 , MS2=           0 ,
 ORBSYM=1,1,1,1,1,1,1,1,1,1,1,1,1,1,1,
 ISYM=0,
 /
   4.1223812829277122                1           1           1           1
  0.35232980175368817                2           1           1           1
  -2.0526282917347662E-006           3           1           1           1
  -3.7644193318087105E-013           4           1           1           1
 -0.11464864942980985                5           1           1           1
  0.17031274093366483                6           1           1           1
  -9.5468077887517211E-013           7           1           1           1
   8.3719479167113535E-006           8           1           1           1
   1.8867685191992223E-012           9           1           1           1
  -4.0217909032641260E-006          10           1           1           1
  -6.3028338969079167E-002          11           1           1           1
  0.24007241917843575               12           1           1           1
  -7.5823791689799691E-012          13           1           1           1
   2.0382540328679807E-003          14           1           1           1
 -0.26488913001433367               15           1           1           1
   4.8966873189981400E-002           2           1           2           1
   2.2158712412725295E-008           3           1           2           1
  -2.0822753243887604E-014           4           1           2           1
  -1.1958043308962874E-002           5           1           2           1
   2.4804937541835721E-002           6           1           2           1
  -5.1000870193718129E-014           7           1           2           1
   1.3855694031428441E-006           8           1           2           1
   1.0117666253417479E-013           9           1           2           1
   2.5566795758253808E-007          10           1           2           1
  -3.2754712005301952E-003          11           1           2           1
   3.4969880114024104E-002          12           1           2           1
  -4.0385056410130460E-013          13           1           2           1
   2.9742629875779145E-004          14           1           2           1
  -3.6219335087407836E-002          15           1           2           1
   1.4545016562714288E-002           3           1           3           1
   2.7686999828219205E-015           4           1           3           1
   2.9299712785313216E-007           5           1           3           1
  -8.8887462301445105E-007           6           1           3           1
   2.0748170976442326E-013           7           1           3           1
   1.0253905656385816E-002           8           1           3           1
   1.5370564792737546E-014           9           1           3           1
   9.5799124209444385E-003          10           1           3           1
  -1.1567594566048480E-006          11           1           3           1
  -2.0771471660647813E-004          12           1           3           1
   2.8480600581907989E-012          13           1           3           1
   2.4481813798869673E-002          14           1           3           1
   5.3715410715440213E-007          15           1           3           1
   1.4544638725572576E-002           4           1           4           1
   6.6192962310576889E-015           5           1           4           1
  -9.6220113628619796E-015           6           1           4           1
  -1.0254026750563930E-002           7           1           4           1
   1.9810205992981667E-013           8           1           4           1
   9.5794732655459132E-003           9           1           4           1
  -3.9710468190102231E-014          10           1           4           1
   5.0022870676619638E-015          11           1           4           1
  -1.3944229708687297E-014          12           1           4           1
  -2.4482288195517767E-002          13           1           4           1
   2.7448071484963144E-012          14           1           4           1
   1.5874456307372630E-014          15           1           4           1
   2.4583849518167757E-002           5           1           5           1
  -2.4278909981828994E-003           6           1           5           1
   2.3065750698325616E-014           7           1           5           1
  -2.4896772565516547E-007           8           1           5           1
  -4.5027133063757496E-014           9           1           5           1
   3.6162491863946395E-006          10           1           5           1
   3.0788832070001066E-002          11           1           5           1
  -2.4756960862973056E-003          12           1           5           1
   1.8427447068258829E-013          13           1           5           1
  -2.0681940068866759E-005          14           1           5           1
   1.0617288465834051E-002          15           1           5           1
   1.3193882599119468E-002           6           1           6           1
  -2.2797735921287199E-014           7           1           6           1
   4.8216391209382603E-008           8           1           6           1
   4.5474095409364645E-014           9           1           6           1
   1.1887004419551363E-007          10           1           6           1
   3.3745292964147159E-003          11           1           6           1
   1.8737386616908869E-002          12           1           6           1
  -1.8062721457434705E-013          13           1           6           1
   1.5782914017885882E-004          14           1           6           1
  -1.7989940659946659E-002          15           1           6           1
   7.2360778689936353E-003           7           1           7           1
   9.2400588048990873E-015           8           1           7           1
  -6.7556137008095507E-003           9           1           7           1
   1.6077713128664819E-013          10           1           7           1
   1.7890289607989550E-014          11           1           7           1
  -3.5460594470459631E-014          12           1           7           1
   1.7287580719402139E-002          13           1           7           1
  -1.5904503191874197E-012          14           1           7           1
   4.0051773380638355E-014          15           1           7           1
   7.2357192637546482E-003           8           1           8           1
   1.3481019110002292E-013           9           1           8           1
   6.7556687040075548E-003          10           1           8           1
  -1.0745457938560753E-006          11           1           8           1
  -1.4572120159881034E-004          12           1           8           1
   1.6875447437017521E-012          13           1           8           1
   1.7286603607837001E-002          14           1           8           1
  -6.3925802288052669E-007          15           1           8           1
   6.3815127934998168E-003           9           1           9           1
  -1.6081257622735899E-014          10           1           9           1
  -3.4478399126239429E-014          11           1           9           1
   6.4140156826738537E-014          12           1           9           1
  -1.6239549782190093E-002          13           1           9           1
   1.8434443235463946E-012          14           1           9           1
  -7.8085838997311849E-014          15           1           9           1
   6.3819335715389657E-003          10           1          10           1
   4.0546995046378863E-006          11           1          10           1
  -1.3662694898131813E-004          12           1          10           1
   1.9530252523720926E-012          13           1          10           1
   1.6239568976900827E-002          14           1          10           1
   4.4746701664397310E-007          15           1          10           1
   4.1927783559530259E-002          11           1          11           1
   6.1092619110016859E-003          12           1          11           1
   1.4355617389272268E-013          13           1          11           1
   4.9823650690255591E-005          14           1          11           1
   4.8518731676435792E-003          15           1          11           1
   2.6741081776735152E-002          12           1          12           1
  -2.9612076679619292E-013          13           1          12           1
  -1.2454977581504169E-004          14           1          12           1
  -2.5479483260218035E-002          15           1          12           1
   4.1479529902087940E-002          13           1          13           1
   1.7355152200609871E-013          14           1          13           1
   3.1207234724887947E-013          15           1          13           1
   4.1478793172105642E-002          14           1          14           1
  -2.1577596835422097E-004          15           1          14           1
   2.7417505421929778E-002          15           1          15           1
  0.87306729861150589                2           2           1           1
   4.9501336338897418E-006           3           2           1           1
   8.8554164001664049E-013           4           2           1           1
  -5.1952888858086549E-002           5           2           1           1
  0.21831864147617591                6           2           1           1
   2.8992364065061338E-012           7           2           1           1
   1.3263481640376155E-005           8           2           1           1
  -5.5682819466440492E-012           9           2           1           1
   8.7156669205462580E-006          10           2           1           1
   1.2897075805161896E-002          11           2           1           1
  0.22716377609430674               12           2           1           1
   2.3351265365789686E-011          13           2           1           1
   1.9334184168182276E-003          14           2           1           1
 -0.23804814683589315               15           2           1           1
   9.5865384771297059E-003           2           2           2           1
  -3.2954538832614001E-007           3           2           2           1
  -2.2349743583616188E-015           4           2           2           1
  -6.3179378592601275E-003           5           2           2           1
   4.7374203821795241E-003           6           2           2           1
  -7.7399024689395191E-015           7           2           2           1
   1.6314055078303738E-007           8           2           2           1
   1.4875297852214378E-014           9           2           2           1
  -2.8756452016700668E-007          10           2           2           1
  -2.8821488034511582E-003          11           2           2           1
   7.2539448624014593E-003          12           2           2           1
  -6.2937068751045544E-014          13           2           2           1
   6.1555315352814313E-005          14           2           2           1
  -8.3002593374986548E-003          15           2           2           1
  -1.7911799684567353E-002           3           2           3           1
  -1.0133495605135767E-015           4           2           3           1
  -1.0094320442613732E-007           5           2           3           1
   5.7054969895836595E-007           6           2           3           1
  -2.7504517760568170E-013           7           2           3           1
  -8.8558465361857127E-003           8           2           3           1
  -6.7543457534912504E-014           9           2           3           1
  -4.6527876832893810E-003          10           2           3           1
   6.1306418412174997E-007          11           2           3           1
   9.5487755876070722E-005          12           2           3           1
  -1.8236414982275573E-012          13           2           3           1
  -1.1259765011445710E-002          14           2           3           1
   1.0775551209953650E-007          15           2           3           1
  -1.7911046582506859E-002           4           2           4           1
   3.8904043553103255E-015           5           2           4           1
  -2.8922884866236589E-014           6           2           4           1
   8.8560395432674723E-003           7           2           4           1
  -2.0809005560340488E-013           8           2           4           1
  -4.6524270738544727E-003           9           2           4           1
   1.9637851728874361E-013          10           2           4           1
  -3.6778306095053281E-015          11           2           4           1
  -2.6416700298398433E-014          12           2           4           1
   1.1260283960795883E-002          13           2           4           1
  -1.2621999799511396E-012          14           2           4           1
   2.9128609246864556E-014          15           2           4           1
  -1.8443010650003946E-002           5           2           5           1
  -7.8518225574475044E-003           6           2           5           1
  -4.0032213655116777E-014           7           2           5           1
  -2.5074317301163813E-007           8           2           5           1
   7.5812918226211834E-014           9           2           5           1
  -1.7693418729203953E-006          10           2           5           1
  -1.3253430736785766E-002          11           2           5           1
  -8.7228215892176629E-003          12           2           5           1
  -3.2451992482140923E-013          13           2           5           1
  -7.4187064032081788E-005          14           2           5           1
   4.0383043726017502E-003          15           2           5           1
   1.0712035208157789E-003           6           2           6           1
  -1.2077144839750531E-014           7           2           6           1
   6.0752226568091019E-007           8           2           6           1
   2.2407700965999117E-014           9           2           6           1
  -1.6128546747349664E-007          10           2           6           1
  -3.7929756198745576E-003          11           2           6           1
   2.1861134468876445E-003          12           2           6           1
  -9.5544449088547090E-014          13           2           6           1
   1.9244535719978663E-005          14           2           6           1
  -3.5754866363499932E-003          15           2           6           1
  -6.1708962872622734E-003           7           2           7           1
  -1.2241943569968328E-014           8           2           7           1
   3.0865944210974991E-003           9           2           7           1
  -1.9674201639586011E-013          10           2           7           1
  -1.0939130843951077E-014          11           2           7           1
  -7.0868134251242505E-014          12           2           7           1
  -7.9257292376901847E-003          13           2           7           1
   6.7819426290138818E-013          14           2           7           1
   7.5373084509888777E-014          15           2           7           1
  -6.1705139735773237E-003           8           2           8           1
  -1.0264959861934139E-013           9           2           8           1
  -3.0867153277162034E-003          10           2           8           1
   4.0739018245582503E-007          11           2           8           1
   6.7418090155517109E-005          12           2           8           1
  -1.0654231403367520E-012          13           2           8           1
  -7.9250677914564308E-003          14           2           8           1
  -1.5486839740382671E-007          15           2           8           1
  -2.9029520953385004E-003           9           2           9           1
   1.0388880104491086E-013          10           2           9           1
   2.0799405303176314E-014          11           2           9           1
   1.4234133072353381E-013          12           2           9           1
   6.5883063870441957E-003          13           2           9           1
  -7.5052204034919967E-013          14           2           9           1
  -1.4850685785272599E-013          15           2           9           1
  -2.9032314797522558E-003          10           2          10           1
  -1.7096416313681295E-006          11           2          10           1
   5.4874216791699877E-005          12           2          10           1
  -1.0946781675569284E-012          13           2          10           1
  -6.5881474306497337E-003          14           2          10           1
   3.4444899686342775E-007          15           2          10           1
  -1.7667444300960154E-002          11           2          11           1
  -9.4443836021924892E-003          12           2          11           1
  -4.0899575393105181E-013          13           2          11           1
  -7.9280050901171529E-005          14           2          11           1
   3.2516574565683767E-003          15           2          11           1
   2.6629100999273352E-003          12           2          12           1
  -1.0279841214377861E-013          13           2          12           1
   1.7249678729616217E-004          14           2          12           1
  -4.8663560981875706E-003          15           2          12           1
  -1.7664969842063283E-002          13           2          13           1
  -1.0649554155195418E-013          14           2          13           1
   5.9518951372796015E-013          15           2          13           1
  -1.7663206043459685E-002          14           2          14           1
  -4.1231239337843000E-005          15           2          14           1
   5.7660618819598154E-003          15           2          15           1
  0.74324750420505303                3           3           1           1
   8.0955034342800047E-013           4           3           1           1
   5.1559254817681577E-006           5           3           1           1
  -1.9854703013197522E-005           6           3           1           1
  -7.4676098638093436E-012           7           3           1           1
  0.22925927041717967                8           3           1           1
   3.6821422647048685E-012           9           3           1           1
  0.14527299221248663               10           3           1           1
  -1.7493337327041700E-005          11           3           1           1
  -2.5896238648603935E-003          12           3           1           1
   6.3566291119698803E-011          13           3           1           1
  0.30495953627555356               14           3           1           1
   4.2351612422608653E-006          15           3           1           1
   4.7605396549970438E-003           3           3           2           1
   2.1487415441273168E-007           5           3           2           1
  -4.1617871644429082E-007           6           3           2           1
   1.5417410458105213E-013           7           3           2           1
   4.0343809876342519E-003           8           3           2           1
  -3.1830568539156995E-015           9           3           2           1
   2.6677249916909019E-003          10           3           2           1
  -2.8421719414670502E-007          11           3           2           1
  -7.7436210150804062E-005          12           3           2           1
   1.0055861037524400E-012          13           3           2           1
   9.1213077203831303E-003          14           3           2           1
   3.0670371138681070E-007          15           3           2           1
  -2.9220982452297329E-003           3           3           3           1
  -4.3402781368939714E-015           4           3           3           1
   3.5968232462027920E-003           5           3           3           1
  -4.4477255627910113E-003           6           3           3           1
   3.0056512834164550E-013           7           3           3           1
   1.4495056793977247E-003           8           3           3           1
   1.0822966871673612E-013           9           3           3           1
  -3.6509472627658385E-003          10           3           3           1
   1.3079949925510670E-003          11           3           3           1
  -3.8198423309191622E-003          12           3           3           1
  -6.3090331570148095E-013          13           3           3           1
   1.8908007352349799E-003          14           3           3           1
   7.8811404710657108E-003          15           3           3           1
   2.9224754088734003E-003           4           3           4           1
  -2.4527499172324885E-015           5           3           4           1
   1.2836953722228372E-015           6           3           4           1
   1.4497643308703492E-003           7           3           4           1
  -4.3632339494920069E-013           8           3           4           1
   3.6508200676411591E-003           9           3           4           1
  -1.1291607162093251E-013          10           3           4           1
   1.0653912647928809E-014          12           3           4           1
   1.9227449537900249E-003          13           3           4           1
  -2.5898142137770197E-013          14           3           4           1
   4.9610923008591712E-015          15           3           4           1
   2.3556922909973383E-007           5           3           5           1
  -3.5840966036470260E-008           6           3           5           1
   3.1070740598437840E-013           7           3           5           1
   2.5531792978063039E-004           8           3           5           1
  -4.0296552309164110E-014           9           3           5           1
  -4.3547268402124610E-003          10           3           5           1
   6.2933397666109212E-007          11           3           5           1
   7.1416424065684525E-006          12           3           5           1
  -3.8089691990761398E-013          13           3           5           1
  -8.4116998995782503E-004          14           3           5           1
  -5.6523397129362545E-008          15           3           5           1
   7.7747520203428245E-008           6           3           6           1
   1.2508315780715429E-013           7           3           6           1
   1.9582571177053898E-003           8           3           6           1
  -8.4760490625193381E-015           9           3           6           1
   5.8410211139640943E-004          10           3           6           1
  -1.2520050251205371E-007          11           3           6           1
  -3.6312319548815828E-005          12           3           6           1
   4.1960704388107478E-013          13           3           6           1
   4.3064523932893131E-003          14           3           6           1
  -3.5860683905404936E-007          15           3           6           1
  -1.0710356700677779E-003           7           3           7           1
   2.3515694599907100E-013           8           3           7           1
  -2.4009031483609201E-003           9           3           7           1
  -5.1426902355198624E-014          10           3           7           1
   3.9963210855717937E-014          11           3           7           1
  -7.7954372150523427E-014          12           3           7           1
  -1.4023006776082200E-003          13           3           7           1
   1.1441997523065073E-013          14           3           7           1
   1.3133835382109216E-013          15           3           7           1
   1.0709045306961868E-003           8           3           8           1
   1.2696484488761151E-013           9           3           8           1
  -2.4007922958805051E-003          10           3           8           1
   1.0435035875161907E-003          11           3           8           1
  -2.7860566210014207E-003          12           3           8           1
  -3.5429558592481314E-013          13           3           8           1
   1.3791422034180811E-003          14           3           8           1
   5.4285102530349117E-003          15           3           8           1
   2.0823171602373960E-003           9           3           9           1
   3.9266428108163109E-014          10           3           9           1
   1.6913198683301038E-015          12           3           9           1
   9.0100596207241021E-004          13           3           9           1
   8.9914404047264362E-014          14           3           9           1
   1.2897777464104809E-014          15           3           9           1
  -2.0829553740155035E-003          10           3          10           1
   6.3885477428468162E-004          11           3          10           1
  -2.3234923463239859E-003          12           3          10           1
  -3.8903168880777272E-013          13           3          10           1
   8.8179601825885820E-004          14           3          10           1
   4.7138353401363995E-003          15           3          10           1
   5.9621185373225089E-007          11           3          11           1
  -7.7490898148531576E-006          12           3          11           1
  -2.3942317312758421E-013          13           3          11           1
   9.5749060965829615E-004          14           3          11           1
  -7.5903209410653092E-007          15           3          11           1
   4.4398093210365008E-006          12           3          12           1
   6.0243482294733419E-013          13           3          12           1
   5.9085586593909303E-003          14           3          12           1
  -1.0247939074664251E-004          15           3          12           1
  -2.8592700328421488E-003          13           3          13           1
  -1.1257920901424034E-013          14           3          13           1
   1.4307575306807263E-012          15           3          13           1
   2.8554588528482377E-003          14           3          14           1
   1.2093808993548763E-002          15           3          14           1
   3.9753210001907855E-008          15           3          15           1
  0.74323527279319168                4           4           1           1
   9.6436461281473311E-014           5           4           1           1
  -4.2785356778147338E-014           6           4           1           1
 -0.22926310121382310                7           4           1           1
  -1.1154549506287026E-011           8           4           1           1
  0.14526860865863575                9           4           1           1
  -1.0192108441942072E-011          10           4           1           1
  -2.2407161756575485E-014          11           4           1           1
  -2.3289007770277355E-013          12           4           1           1
 -0.30496937088412790               13           4           1           1
   3.4329122877707618E-011          14           4           1           1
  -6.4365179852643450E-014          15           4           1           1
   4.7605595499464089E-003           4           4           2           1
  -2.0733460333757350E-015           5           4           2           1
  -4.0343910683161826E-003           7           4           2           1
   1.5738346498435363E-013           8           4           2           1
   2.6677604899851930E-003           9           4           2           1
   5.7069556328934179E-015          10           4           2           1
  -1.8809906516691860E-015          12           4           2           1
  -9.1213611170302671E-003          13           4           2           1
   1.0235626501107001E-012          14           4           2           1
   2.9223558672709024E-003           4           4           3           1
  -3.3424868775555616E-015           6           4           3           1
   1.4498797870884208E-003           7           4           3           1
  -4.1122422307637851E-013           8           4           3           1
   3.6508720202076250E-003           9           4           3           1
  -1.0324272158219495E-013          10           4           3           1
  -2.4732819958739327E-015          12           4           3           1
   1.9228958928647973E-003          13           4           3           1
  -2.2511940228620020E-013          14           4           3           1
  -1.5473885194017267E-013           4           4           4           1
   3.5968044351255813E-003           5           4           4           1
  -4.4475502908027115E-003           6           4           4           1
  -3.9877476321059646E-013           7           4           4           1
  -1.4498888098287877E-003           8           4           4           1
   1.3781147447169961E-013           9           4           4           1
   3.6507969694567692E-003          10           4           4           1
   1.3071148203049252E-003          11           4           4           1
  -3.7876971591858958E-003          12           4           4           1
  -4.2662227917045215E-013          13           4           4           1
  -1.9551692539517009E-003          14           4           4           1
   7.8807499216686505E-003          15           4           4           1
  -1.7590279005521431E-014           5           4           5           1
  -4.4715750199819659E-015           6           4           5           1
  -2.5535797795783462E-004           7           4           5           1