 &FCI NORB=          15 , NELEC=          10 , MS2=           0 ,
 ORBSYM=1,1,1,1,1,1,1,1,1,1,1,1,1,1,1,
 ISYM=0,
 /
   4.1223812829277122                1           1           1           1
  0.35232980175368817                2           1           1           1
  -2.0526282917536457E-006           3           1           1           1
  -3.7644193318087105E-013           4           1           1           1
 -0.11464864942980985                5           1           1           1
  0.17031274093366489                6           1           1           1
  -9.5468077887517211E-013           7           1           1           1
   8.3719479167302932E-006           8           1           1           1
   1.8867685191992223E-012           9           1           1           1
  -4.0217909032649865E-006          10           1           1           1
  -6.3028338969079140E-002          11           1           1           1
  0.24007241917843578               12           1           1           1
  -7.5823791689799691E-012          13           1           1           1
   2.0382540328679134E-003          14           1           1           1
 -0.26488913001433345               15           1           1           1
   4.8966873189981400E-002           2           1           2           1
   2.2158712412256991E-008           3           1           2           1
  -2.0822753243887604E-014           4           1           2           1
  -1.1958043308962876E-002           5           1           2           1
   2.4804937541835714E-002           6           1           2           1
  -5.1000870193718129E-014           7           1           2           1
   1.3855694031433701E-006           8           1           2           1
   1.0117666253417479E-013           9           1           2           1
   2.5566795758222468E-007          10           1           2           1
  -3.2754712005301952E-003          11           1           2           1
   3.4969880114024104E-002          12           1           2           1
  -4.0385056410130460E-013          13           1           2           1
   2.9742629875779145E-004          14           1           2           1
  -3.6219335087407843E-002          15           1           2           1
   1.4545016562714288E-002           3           1           3           1
   2.7686999828219205E-015           4           1           3           1
   2.9299712785312195E-007           5           1           3           1
  -8.8887462301435216E-007           6           1           3           1
   2.0748180054854698E-013           7           1           3           1
   1.0253905656385816E-002           8           1           3           1
   1.5370524033786956E-014           9           1           3           1
   9.5799124209444385E-003          10           1           3           1
  -1.1567594566048154E-006          11           1           3           1
  -2.0771471660647819E-004          12           1           3           1
   2.8480600739318981E-012          13           1           3           1
   2.4481813798869673E-002          14           1           3           1
   5.3715410715434252E-007          15           1           3           1
   1.4544638725572575E-002           4           1           4           1
   6.6192928429258999E-015           5           1           4           1
  -9.6220113628619796E-015           6           1           4           1
  -1.0254026750563932E-002           7           1           4           1
   1.9810206019537365E-013           8           1           4           1
   9.5794732655459132E-003           9           1           4           1
  -3.9710468190102231E-014          10           1           4           1
   5.0023006201891199E-015          11           1           4           1
  -1.4646684296240655E-014          12           1           4           1
  -2.4482288195517767E-002          13           1           4           1
   2.7448071649166525E-012          14           1           4           1
   1.5874347887155381E-014          15           1           4           1
   2.4583849518167757E-002           5           1           5           1
  -2.4278909981828977E-003           6           1           5           1
   2.3065750698325616E-014           7           1           5           1
  -2.4896772565471803E-007           8           1           5           1
  -4.5027133063757496E-014           9           1           5           1
   3.6162491863947632E-006          10           1           5           1
   3.0788832070001066E-002          11           1           5           1
  -2.4756960862973056E-003          12           1           5           1
   1.8427447068258829E-013          13           1           5           1
  -2.0681940068866982E-005          14           1           5           1
   1.0617288465834051E-002          15           1           5           1
   1.3193882599119466E-002           6           1           6           1
  -2.2797735921287199E-014           7           1           6           1
   4.8216391211931748E-008           8           1           6           1
   4.5474095409364645E-014           9           1           6           1
   1.1887004419564768E-007          10           1           6           1
   3.3745292964147142E-003          11           1           6           1
   1.8737386616908866E-002          12           1           6           1
  -1.8062721457434705E-013          13           1           6           1
   1.5782914017885741E-004          14           1           6           1
  -1.7989940659946663E-002          15           1           6           1
   7.2360778689936371E-003           7           1           7           1
   9.2400889445646332E-015           8           1           7           1
  -6.7556137008095516E-003           9           1           7           1
   1.6077713128664819E-013          10           1           7           1
   1.7890285211998132E-014          11           1           7           1
  -3.5460594470459631E-014          12           1           7           1
   1.7287580719402139E-002          13           1           7           1
  -1.5904503236078727E-012          14           1           7           1
   4.0051774299499499E-014          15           1           7           1
   7.2357192637546473E-003           8           1           8           1
   1.3481021394636380E-013           9           1           8           1
   6.7556687040075548E-003          10           1           8           1
  -1.0745457938560721E-006          11           1           8           1
  -1.4572120159881040E-004          12           1           8           1
   1.6875447363506659E-012          13           1           8           1
   1.7286603607837001E-002          14           1           8           1
  -6.3925802288053241E-007          15           1           8           1
   6.3815127934998160E-003           9           1           9           1
  -1.6081257622735899E-014          10           1           9           1
  -3.4478391185851295E-014          11           1           9           1
   6.4140156826738537E-014          12           1           9           1
  -1.6239549782190093E-002          13           1           9           1
   1.8434442855015419E-012          14           1           9           1
  -7.8085860371916286E-014          15           1           9           1
   6.3819335715389657E-003          10           1          10           1
   4.0546995046378465E-006          11           1          10           1
  -1.3662694898131816E-004          12           1          10           1
   1.9530252914580551E-012          13           1          10           1
   1.6239568976900827E-002          14           1          10           1
   4.4746701664407602E-007          15           1          10           1
   4.1927783559530266E-002          11           1          11           1
   6.1092619110016833E-003          12           1          11           1
   1.4355660757359168E-013          13           1          11           1
   4.9823650690255184E-005          14           1          11           1
   4.8518731676435818E-003          15           1          11           1
   2.6741081776735159E-002          12           1          12           1
  -2.9611962408233509E-013          13           1          12           1
  -1.2454977581504223E-004          14           1          12           1
  -2.5479483260218039E-002          15           1          12           1
   4.1479529902087940E-002          13           1          13           1
   1.7355151664965784E-013          14           1          13           1
   3.1207233486523349E-013          15           1          13           1
   4.1478793172105642E-002          14           1          14           1
  -2.1577596835422089E-004          15           1          14           1
   2.7417505421929774E-002          15           1          15           1
  0.87306729861150589                2           2           1           1
   4.9501336338789718E-006           3           2           1           1
   8.8554164001664049E-013           4           2           1           1
  -5.1952888858086577E-002           5           2           1           1
  0.21831864147617591                6           2           1           1
   2.8992364065061338E-012           7           2           1           1
   1.3263481640414153E-005           8           2           1           1
  -5.5682819466440492E-012           9           2           1           1
   8.7156669205643303E-006          10           2           1           1
   1.2897075805161883E-002          11           2           1           1
  0.22716377609430669               12           2           1           1
   2.3351265365789686E-011          13           2           1           1
   1.9334184168182324E-003          14           2           1           1
 -0.23804814683589337               15           2           1           1
   9.5865384771297059E-003           2           2           2           1
  -3.2954538832615198E-007           3           2           2           1
  -2.2349743583616188E-015           4           2           2           1
  -6.3179378592601275E-003           5           2           2           1
   4.7374203821795250E-003           6           2           2           1
  -7.7399024689395191E-015           7           2           2           1
   1.6314055078314162E-007           8           2           2           1
   1.4875297852214378E-014           9           2           2           1
  -2.8756452016700663E-007          10           2           2           1
  -2.8821488034511582E-003          11           2           2           1
   7.2539448624014602E-003          12           2           2           1
  -6.2937068751045544E-014          13           2           2           1
   6.1555315352814489E-005          14           2           2           1
  -8.3002593374986531E-003          15           2           2           1
  -1.7911799684567350E-002           3           2           3           1
  -1.0133670879505680E-015           4           2           3           1
  -1.0094320442623769E-007           5           2           3           1
   5.7054969895877592E-007           6           2           3           1
  -2.7504517973675134E-013           7           2           3           1
  -8.8558465361857144E-003           8           2           3           1
  -6.7543378846733072E-014           9           2           3           1
  -4.6527876832893819E-003          10           2           3           1
   6.1306418412201424E-007          11           2           3           1
   9.5487755876070789E-005          12           2           3           1
  -1.8236416027050658E-012          13           2           3           1
  -1.1259765011445709E-002          14           2           3           1
   1.0775551209969773E-007          15           2           3           1
  -1.7911046582506855E-002           4           2           4           1
   3.8904438543765564E-015           5           2           4           1
  -2.8922791399986432E-014           6           2           4           1
   8.8560395432674723E-003           7           2           4           1
  -2.0808979603421307E-013           8           2           4           1
  -4.6524270738544753E-003           9           2           4           1
   1.9637851728874361E-013          10           2           4           1
  -3.6778806014321009E-015          11           2           4           1
  -2.6416700298398433E-014          12           2           4           1
   1.1260283960795883E-002          13           2           4           1
  -1.2621998258434311E-012          14           2           4           1
   2.9128129996773237E-014          15           2           4           1
  -1.8443010650003949E-002           5           2           5           1
  -7.8518225574475062E-003           6           2           5           1
  -4.0032213655116777E-014           7           2           5           1
  -2.5074317301127666E-007           8           2           5           1
   7.5812918226211834E-014           9           2           5           1
  -1.7693418729200713E-006          10           2           5           1
  -1.3253430736785766E-002          11           2           5           1
  -8.7228215892176646E-003          12           2           5           1
  -3.2451992482140923E-013          13           2           5           1
  -7.4187064032080988E-005          14           2           5           1
   4.0383043726017484E-003          15           2           5           1
   1.0712035208157780E-003           6           2           6           1
  -1.2077144839750531E-014           7           2           6           1
   6.0752226568066433E-007           8           2           6           1
   2.2407700965999117E-014           9           2           6           1
  -1.6128546747346614E-007          10           2           6           1
  -3.7929756198745576E-003          11           2           6           1
   2.1861134468876445E-003          12           2           6           1
  -9.5544449088547090E-014          13           2           6           1
   1.9244535719978951E-005          14           2           6           1
  -3.5754866363499941E-003          15           2           6           1
  -6.1708962872622734E-003           7           2           7           1
  -1.2241888213024877E-014           8           2           7           1
   3.0865944210974987E-003           9           2           7           1
  -1.9674201639586011E-013          10           2           7           1
  -1.0939158932721148E-014          11           2           7           1
  -7.0868189803673627E-014          12           2           7           1
  -7.9257292376901829E-003          13           2           7           1
   6.7819418549097494E-013          14           2           7           1
   7.5372991444978649E-014          15           2           7           1
  -6.1705139735773228E-003           8           2           8           1
  -1.0264953147340420E-013           9           2           8           1
  -3.0867153277162043E-003          10           2           8           1
   4.0739018245588094E-007          11           2           8           1
   6.7418090155517164E-005          12           2           8           1
  -1.0654230642715279E-012          13           2           8           1
  -7.9250677914564308E-003          14           2           8           1
  -1.5486839740357601E-007          15           2           8           1
  -2.9029520953384996E-003           9           2           9           1
   1.0388901788534535E-013          10           2           9           1
   2.0799414169765437E-014          11           2           9           1
   1.4234138488505898E-013          12           2           9           1
   6.5883063870441948E-003          13           2           9           1
  -7.5052176961021738E-013          14           2           9           1
  -1.4850696081039252E-013          15           2           9           1
  -2.9032314797522553E-003          10           2          10           1
  -1.7096416313681328E-006          11           2          10           1
   5.4874216791699654E-005          12           2          10           1
  -1.0946783128181438E-012          13           2          10           1
  -6.5881474306497337E-003          14           2          10           1
   3.4444899686310863E-007          15           2          10           1
  -1.7667444300960150E-002          11           2          11           1
  -9.4443836021924892E-003          12           2          11           1
  -4.0899575393105181E-013          13           2          11           1
  -7.9280050901171244E-005          14           2          11           1
   3.2516574565683793E-003          15           2          11           1
   2.6629100999273356E-003          12           2          12           1
  -1.0279847164093350E-013          13           2          12           1
   1.7249678729616203E-004          14           2          12           1
  -4.8663560981875706E-003          15           2          12           1
  -1.7664969842063283E-002          13           2          13           1
  -1.0649525446958369E-013          14           2          13           1
   5.9519013723810504E-013          15           2          13           1
  -1.7663206043459685E-002          14           2          14           1
  -4.1231239337842709E-005          15           2          14           1
   5.7660618819598162E-003          15           2          15           1
  0.74324750420505303                3           3           1           1
   8.0955081026387138E-013           4           3           1           1
   5.1559254817689344E-006           5           3           1           1
  -1.9854703013190251E-005           6           3           1           1
  -7.4676287578195619E-012           7           3           1           1
  0.22925927041717967                8           3           1           1
   3.6821314347619233E-012           9           3           1           1
  0.14527299221248663               10           3           1           1
  -1.7493337327054398E-005          11           3           1           1
  -2.5896238648603870E-003          12           3           1           1
   6.3566278480688758E-011          13           3           1           1
  0.30495953627555367               14           3           1           1
   4.2351612422139575E-006          15           3           1           1
   4.7605396549970438E-003           3           3           2           1
   2.1487415441273139E-007           5           3           2           1
  -4.1617871644428616E-007           6           3           2           1
   1.5417410458105213E-013           7           3           2           1
   4.0343809876342528E-003           8           3           2           1
  -3.1830567779073266E-015           9           3           2           1
   2.6677249916909019E-003          10           3           2           1
  -2.8421719414670793E-007          11           3           2           1
  -7.7436210150804048E-005          12           3           2           1
   1.0055860997538630E-012          13           3           2           1
   9.1213077203831303E-003          14           3           2           1
   3.0670371138680588E-007          15           3           2           1
  -2.9220982452297329E-003           3           3           3           1
  -4.3404036275784363E-015           4           3           3           1
   3.5968232462027911E-003           5           3           3           1
  -4.4477255627910130E-003           6           3           3           1
   3.0056449542643116E-013           7           3           3           1
   1.4495056793977280E-003           8           3           3           1
   1.0822968694421007E-013           9           3           3           1
  -3.6509472627658385E-003          10           3           3           1
   1.3079949925510666E-003          11           3           3           1
  -3.8198423309191618E-003          12           3           3           1
  -6.3090266282138409E-013          13           3           3           1
   1.8908007352349801E-003          14           3           3           1
   7.8811404710657108E-003          15           3           3           1
   2.9224754088734003E-003           4           3           4           1
  -1.3776824848114546E-015           5           3           4           1
   1.1414068372750428E-015           6           3           4           1
   1.4497643308703490E-003           7           3           4           1
  -4.3632337542491040E-013           8           3           4           1
   3.6508200676411582E-003           9           3           4           1
  -1.1291607162093251E-013          10           3           4           1
   1.0653912647928809E-014          12           3           4           1
   1.9227449537900251E-003          13           3           4           1
  -2.5898140550045539E-013          14           3           4           1
   4.9608523815800147E-015          15           3           4           1
   2.3556922909972875E-007           5           3           5           1
  -3.5840966036116875E-008           6           3           5           1
   3.1070742056650117E-013           7           3           5           1
   2.5531792978063039E-004           8           3           5           1
  -4.0296607863856859E-014           9           3           5           1
  -4.3547268402124610E-003          10           3           5           1
   6.2933397666113680E-007          11           3           5           1
   7.1416424065680426E-006          12           3           5           1
  -3.8089695113151500E-013          13           3           5           1
  -8.4116998995782460E-004          14           3           5           1
  -5.6523397129390119E-008          15           3           5           1
   7.7747520203450056E-008           6           3           6           1
   1.2508317226026537E-013           7           3           6           1
   1.9582571177053894E-003           8           3           6           1
  -8.4760489773265854E-015           9           3           6           1
   5.8410211139640943E-004          10           3           6           1
  -1.2520050251205530E-007          11           3           6           1
  -3.6312319548815767E-005          12           3           6           1
   4.1960704409156322E-013          13           3           6           1
   4.3064523932893131E-003          14           3           6           1
  -3.5860683905404025E-007          15           3           6           1
  -1.0710356700677779E-003           7           3           7           1
   2.3515704502143304E-013           8           3           7           1
  -2.4009031483609206E-003           9           3           7           1
  -5.1426902355198624E-014          10           3           7           1
   3.9963229371585924E-014          11           3           7           1
  -7.7954573670580630E-014          12           3           7           1
  -1.4023006776082200E-003          13           3           7           1
   1.1442006807239842E-013          14           3           7           1
   1.3133837603517657E-013          15           3           7           1
   1.0709045306961866E-003           8           3           8           1
   1.2696484989474373E-013           9           3           8           1
  -2.4007922958805042E-003          10           3           8           1
   1.0435035875161910E-003          11           3           8           1
  -2.7860566210014207E-003          12           3           8           1
  -3.5429581947613217E-013          13           3           8           1
   1.3791422034180809E-003          14           3           8           1
   5.4285102530349117E-003          15           3           8           1
   2.0823171602373956E-003           9           3           9           1
   3.9266428108163109E-014          10           3           9           1
   1.6913078405860328E-015          12           3           9           1
   9.0100596207241010E-004          13           3           9           1
   8.9914377272152866E-014          14           3           9           1
   1.2897796477941892E-014          15           3           9           1
  -2.0829553740155031E-003          10           3          10           1
   6.3885477428468173E-004          11           3          10           1
  -2.3234923463239850E-003          12           3          10           1
  -3.8903127061299202E-013          13           3          10           1
   8.8179601825885906E-004          14           3          10           1
   4.7138353401364021E-003          15           3          10           1
   5.9621185373222400E-007          11           3          11           1
  -7.7490898148533067E-006          12           3          11           1
  -2.3942321896727899E-013          13           3          11           1
   9.5749060965829615E-004          14           3          11           1
  -7.5903209410657105E-007          15           3          11           1
   4.4398093210365407E-006          12           3          12           1
   6.0243483647257893E-013          13           3          12           1
   5.9085586593909303E-003          14           3          12           1
  -1.0247939074664257E-004          15           3          12           1
  -2.8592700328421497E-003          13           3          13           1
  -1.1257929922153728E-013          14           3          13           1
   1.4307573241959466E-012          15           3          13           1
   2.8554588528482395E-003          14           3          14           1
   1.2093808993548774E-002          15           3          14           1
   3.9753210001911296E-008          15           3          15           1
  0.74323527279319168                4           4           1           1
   9.6433753862966194E-014           5           4           1           1
  -4.2761026270056923E-014           6           4           1           1
 -0.22926310121382321                7           4           1           1
  -1.1154574604489916E-011           8           4           1           1
  0.14526860865863578                9           4           1           1
  -1.0192108441942072E-011          10           4           1           1
  -2.2407275381353926E-014          11           4           1           1
  -2.3288502209512570E-013          12           4           1           1
 -0.30496937088412790               13           4           1           1
   3.4329138325460047E-011          14           4           1           1
  -6.4388013486689870E-014          15           4           1           1
   4.7605595499464089E-003           4           4           2           1
  -2.0733458969306483E-015           5           4           2           1
  -4.0343910683161835E-003           7           4           2           1
   1.5738346288204144E-013           8           4           2           1
   2.6677604899851934E-003           9           4           2           1
   5.7069556328934179E-015          10           4           2           1
  -1.0083434280899156E-015          12           4           2           1
  -9.1213611170302671E-003          13           4           2           1
   1.0235626551414773E-012          14           4           2           1
   2.9223558672709024E-003           4           4           3           1
  -2.3443703575654062E-015           6           4           3           1
   1.4498797870884210E-003           7           4           3           1
  -4.1101243947362111E-013           8           4           3           1
   3.6508720202076258E-003           9           4           3           1
  -1.0324272158219495E-013          10           4           3           1
  -2.8393086493050390E-015          12           4           3           1
   1.9228958928647975E-003          13           4           3           1
  -2.2511945636304379E-013          14           4           3           1
  -1.5473884728018072E-013           4           4           4           1
   3.5968044351255813E-003           5           4           4           1
  -4.4475502908027150E-003           6           4           4           1
  -3.9877666146564173E-013           7           4           4           1
  -1.4498888098287890E-003           8           4           4           1
   1.3781143088264965E-013           9           4           4           1
   3.6507969694567701E-003          10           4           4           1
   1.3071148203049256E-003          11           4           4           1
  -3.7876971591858980E-003          12           4           4           1
  -4.2662287305784883E-013          13           4           4           1
  -1.9551692539516979E-003          14           4           4           1
   7.8807499216686522E-003          15           4           4           1
  -1.7590284920154456E-014           5           4           5           1
  -4.4715910065827133E-015           6           4           5           1
  -2.5535797795783462E-004           7           4           5           1